       N       E                     dE             d eps       ncg     rms          ort
DAV:   1     0.538239754098E+04    0.53824E+04   -0.25726E+05  7488   0.159E+03
DAV:   2     0.276811653009E+03   -0.51056E+04   -0.48500E+04  7488   0.451E+02
DAV:   3    -0.378254147401E+03   -0.65507E+03   -0.63987E+03  7488   0.173E+02
DAV:   4    -0.403671586547E+03   -0.25417E+02   -0.24987E+02  7488   0.393E+01
DAV:   5    -0.404658424077E+03   -0.98684E+00   -0.98122E+00  7488   0.683E+00
SDA:   6    -0.181975271697E+03    0.22268E+03   -0.98122E+00  7488   0.140E+04 0.000E+00
CGA:   7    -0.180899852550E+03    0.10754E+01   -0.96028E+02  7488   0.334E+04-0.392E+03
CGA:   8    -0.216379588339E+03   -0.35480E+02   -0.85713E+02  7488   0.248E+04-0.134E+04
CGA:   9    -0.287843835345E+03   -0.71464E+02   -0.33364E+02  7488   0.527E+03-0.124E+04
CGA:  10    -0.280280583351E+03    0.75633E+01   -0.18869E+02  7488   0.261E+04-0.916E+03
CGA:  11    -0.145398535202E+03    0.13488E+03   -0.13601E+03  7488   0.578E+04-0.205E+04
CGA:  12    -0.203469309091E+02    0.12505E+03   -0.31602E+03  7488   0.137E+04-0.796E+03
CGA:  13    -0.180733537556E+03   -0.16039E+03   -0.15875E+02  7488   0.148E+04 0.308E+04
CGA:  14    -0.303461492148E+03   -0.12273E+03   -0.33197E+02  7488   0.929E+03 0.750E+03
CGA:  15    -0.297396664995E+03    0.60648E+01   -0.24107E+02  7488   0.176E+04-0.116E+04
CGA:  16    -0.248797488284E+03    0.48599E+02   -0.53124E+02  7488   0.651E+04-0.356E+04
CGA:  17    -0.430594819065E+02    0.20574E+03   -0.30945E+03  7488   0.287E+04-0.125E+04
CGA:  18    -0.284322429754E+03   -0.24126E+03   -0.54391E+02  7488   0.236E+04-0.357E+04
CGA:  19    -0.202744415128E+03    0.81578E+02   -0.86013E+02  7488   0.758E+04-0.462E+04
CGA:  20    -0.156174462216E+03    0.46570E+02   -0.29509E+03  7488   0.326E+04-0.140E+04
CGA:  21    -0.977560530012E+02    0.58418E+02   -0.10054E+03  7488   0.162E+05-0.138E+05
CGA:  22     0.206658393909E+03    0.30441E+03   -0.75359E+03  7488   0.362E+05-0.213E+05
CGA:  23     0.673160068253E+02   -0.13934E+03   -0.19571E+04  7488   0.910E+03-0.102E+04
CGA:  24     0.425980094666E+02   -0.24718E+02   -0.10402E+02  7488   0.132E+04 0.146E+04
CGA:  25    -0.101978952599E+03   -0.14458E+03   -0.17556E+02  7488   0.195E+04 0.309E+04
CGA:  26    -0.283571751293E+03   -0.18159E+03   -0.27389E+02  7488   0.242E+04 0.598E+04
CGA:  27    -0.289099800461E+03   -0.55280E+01   -0.65101E+02  7488   0.467E+04-0.240E+04
CGA:  28    -0.157301302217E+03    0.13180E+03   -0.15084E+03  7488   0.115E+05-0.539E+04
CGA:  29    -0.345443151522E+02    0.12276E+03   -0.39568E+03  7488   0.536E+04-0.333E+04
CGA:  30    -0.240646802198E+03   -0.20610E+03   -0.81035E+02  7488   0.978E+04-0.661E+04
CGA:  31    -0.111890642383E+03    0.12876E+03   -0.27236E+03  7488   0.126E+05-0.772E+04
CGA:  32    -0.121230665271E+03   -0.93400E+01   -0.36670E+03  7488   0.565E+04-0.416E+04
CGA:  33    -0.280256436275E+03   -0.15903E+03   -0.63673E+02  7488   0.441E+04 0.487E+03
CGA:  34    -0.246508045206E+03    0.33748E+02   -0.12212E+03  7488   0.101E+05-0.558E+04
CGA:  35    -0.288942828589E+03   -0.42435E+02   -0.26350E+03  7488   0.390E+04-0.474E+04
CGA:  36    -0.318386028628E+03   -0.29443E+02   -0.34653E+02  7488   0.254E+04-0.557E+03
CGA:  37    -0.290014486727E+03    0.28372E+02   -0.43131E+02  7488   0.422E+04-0.195E+04
CGA:  38    -0.253301643372E+03    0.36713E+02   -0.88005E+02  7488   0.434E+04-0.285E+04
CGA:  39    -0.199393078336E+03    0.53909E+02   -0.96927E+02  7488   0.632E+04-0.485E+04
CGA:  40    -0.209469750406E+03   -0.10077E+02   -0.14594E+03  7488   0.585E+04-0.541E+04
CGA:  41    -0.225270270478E+03   -0.15801E+02   -0.13020E+03  7488   0.820E+04-0.851E+04
CGA:  42    -0.238030699448E+03   -0.12760E+02   -0.18331E+03  7488   0.408E+04-0.445E+04
CGA:  43    -0.295712283874E+03   -0.57682E+02   -0.79626E+02  7488   0.474E+04-0.806E+04
CGA:  44    -0.285342954204E+03    0.10369E+02   -0.88392E+02  7488   0.286E+04-0.305E+04
CGA:  45    -0.281272903771E+03    0.40701E+01   -0.44080E+02  7488   0.646E+04-0.629E+04
CGA:  46    -0.268473655812E+03    0.12799E+02   -0.11659E+03  7488   0.331E+04-0.272E+04
CGA:  47    -0.338299326386E+03   -0.69826E+02   -0.24165E+02  7488   0.371E+03-0.993E+03
CGA:  48    -0.339063740674E+03   -0.76441E+00   -0.26916E+01  7488   0.631E+03-0.243E+03
CGA:  49    -0.335429615899E+03    0.36341E+01   -0.65808E+01  7488   0.141E+04-0.826E+03
CGA:  50    -0.323203665834E+03    0.12226E+02   -0.15628E+02  7488   0.394E+04-0.224E+04
CGA:  51    -0.281953588987E+03    0.41250E+02   -0.59164E+02  7488   0.461E+04-0.229E+04
CGA:  52    -0.263267976000E+03    0.18686E+02   -0.61372E+02  7488   0.552E+04-0.460E+04
CGA:  53    -0.265625607300E+03   -0.23576E+01   -0.79956E+02  7488   0.345E+04-0.315E+04
CGA:  54    -0.314059534042E+03   -0.48434E+02   -0.39618E+02  7488   0.375E+04-0.669E+04
CGA:  55    -0.301174448041E+03    0.12885E+02   -0.45838E+02  7488   0.477E+04-0.405E+04
CGA:  56    -0.292640194676E+03    0.85343E+01   -0.53576E+02  7488   0.612E+04-0.549E+04
CGA:  57    -0.278603941593E+03    0.14036E+02   -0.79947E+02  7488   0.400E+04-0.331E+04
CGA:  58    -0.317143545697E+03   -0.38540E+02   -0.40224E+02  7488   0.397E+04-0.645E+04
CGA:  59    -0.310407037128E+03    0.67365E+01   -0.44233E+02  7488   0.436E+04-0.393E+04
CGA:  60    -0.315954140311E+03   -0.55471E+01   -0.42387E+02  7488   0.444E+04-0.483E+04
CGA:  61    -0.308874539533E+03    0.70796E+01   -0.48895E+02  7488   0.439E+04-0.384E+04
CGA:  62    -0.322468387477E+03   -0.13594E+02   -0.40386E+02  7488   0.352E+04-0.454E+04
CGA:  63    -0.323378711548E+03   -0.91032E+00   -0.34585E+02  7488   0.313E+04-0.321E+04
CGA:  64    -0.332743485561E+03   -0.93648E+01   -0.26203E+02  7488   0.189E+04-0.263E+04
CGA:  65    -0.338088137269E+03   -0.53447E+01   -0.14800E+02  7488   0.886E+03-0.132E+04
CGA:  66    -0.342008278289E+03   -0.39201E+01   -0.53660E+01  7488   0.960E+02-0.295E+03
CGA:  67    -0.342467605835E+03   -0.45933E+00   -0.46426E+00  7488   0.191E+01-0.775E+00
CGA:  68    -0.342572084322E+03   -0.10448E+00   -0.10463E+00  7488   0.156E+02-0.372E-02
CGA:  69    -0.343029915468E+03   -0.45783E+00   -0.53244E+00  7488   0.355E+02-0.737E+01
CGA:  70    -0.343095028857E+03   -0.65113E-01   -0.59180E-01  7488   0.294E+02 0.171E+01
CGA:  71    -0.343208701013E+03   -0.11367E+00   -0.16206E+00  7488   0.155E+02-0.889E+01
CGA:  72    -0.343255571903E+03   -0.46871E-01   -0.56486E-01  7488   0.110E+02-0.160E+01
CGA:  73    -0.343298837994E+03   -0.43266E-01   -0.45817E-01  7488   0.467E+01-0.436E+00
CGA:  74    -0.343320532965E+03   -0.21695E-01   -0.23057E-01  7488   0.294E+01-0.215E+00
CGA:  75    -0.343342616072E+03   -0.22083E-01   -0.22874E-01  7488   0.387E+01-0.648E-01
CGA:  76    -0.343374480946E+03   -0.31865E-01   -0.33856E-01  7488   0.454E+01-0.125E+00
CGA:  77    -0.343415257479E+03   -0.40777E-01   -0.45583E-01  7488   0.569E+01-0.160E+00
CGA:  78    -0.343497434679E+03   -0.82177E-01   -0.83408E-01  7488   0.735E+01 0.119E+00
CGA:  79    -0.343577876069E+03   -0.80441E-01   -0.73868E-01  7488   0.484E+01 0.363E+00
CGA:  80    -0.343619224270E+03   -0.41348E-01   -0.41983E-01  7488   0.249E+01-0.439E-01
CGA:  81    -0.343638219973E+03   -0.18996E-01   -0.19810E-01  7488   0.121E+01-0.581E-01
CGA:  82    -0.343651872722E+03   -0.13653E-01   -0.13880E-01  7488   0.150E+01 0.138E-02
CGA:  83    -0.343680536531E+03   -0.28664E-01   -0.28418E-01  7488   0.223E+01 0.735E-01
CGA:  84    -0.343714515493E+03   -0.33979E-01   -0.34108E-01  7488   0.218E+01 0.186E-01
CGA:  85    -0.343753779848E+03   -0.39264E-01   -0.39174E-01  7488   0.214E+01 0.555E-01
CGA:  86    -0.343781056904E+03   -0.27277E-01   -0.27913E-01  7488   0.913E+00 0.272E-01
CGA:  87    -0.343798555531E+03   -0.17499E-01   -0.17402E-01  7488   0.845E+00 0.282E-01
CGA:  88    -0.343813264116E+03   -0.14709E-01   -0.14708E-01  7488   0.470E+00 0.779E-02
CGA:  89    -0.343825990620E+03   -0.12727E-01   -0.12688E-01  7488   0.634E+00 0.342E-02
CGA:  90    -0.343838706045E+03   -0.12715E-01   -0.12633E-01  7488   0.432E+00 0.205E-01
CGA:  91    -0.343852465791E+03   -0.13760E-01   -0.13400E-01  7488   0.548E+00 0.256E-01
CGA:  92    -0.343865254114E+03   -0.12788E-01   -0.12711E-01  7488   0.355E+00 0.132E-01
CGA:  93    -0.343877147059E+03   -0.11893E-01   -0.11727E-01  7488   0.231E+00 0.107E-01
CGA:  94    -0.343882373362E+03   -0.52263E-02   -0.52026E-02  7488   0.147E+00 0.490E-02
CGA:  95    -0.343886572549E+03   -0.41992E-02   -0.41886E-02  7488   0.840E-01 0.845E-03
SDA:  96    -0.343890797755E+03   -0.42252E-02   -0.41574E-02  7488   0.123E+00 0.257E-02
CGA:  97    -0.343892842427E+03   -0.20447E-02   -0.20459E-02  7488   0.347E-01 0.635E-04
CGA:  98    -0.343894046182E+03   -0.12038E-02   -0.12023E-02  7488   0.349E-01 0.860E-04
CGA:  99    -0.343898090972E+03   -0.40448E-02   -0.41487E-04  7488   0.119E+00-0.594E-02
CGA: 100    -0.343901378235E+03   -0.32873E-02   -0.32941E-02  7488   0.617E-01 0.314E-03
CGA: 101    -0.343904009704E+03   -0.26315E-02   -0.26280E-02  7488   0.351E-01 0.518E-03
CGA: 102    -0.343905142790E+03   -0.11331E-02   -0.11349E-02  7488   0.179E-01 0.320E-04
CGA: 103    -0.343905753631E+03   -0.61084E-03   -0.61120E-03  7488   0.104E-01-0.658E-05
CGA: 104    -0.343906259465E+03   -0.50583E-03   -0.50697E-03  7488   0.989E-02-0.103E-03
CGA: 105    -0.343906621120E+03   -0.36165E-03   -0.36152E-03  7488   0.117E-01-0.667E-04
CGA: 106    -0.343907256738E+03   -0.63562E-03   -0.63716E-03  7488   0.798E-02-0.106E-03
CGA: 107    -0.343907464982E+03   -0.20824E-03   -0.20867E-03  7488   0.315E-02-0.288E-04
CGA: 108    -0.343907593973E+03   -0.12899E-03   -0.12894E-03  7488   0.275E-02 0.144E-04
CGA: 109    -0.343907992031E+03   -0.39806E-03   -0.39657E-03  7488   0.737E-02-0.777E-05
CGA: 110    -0.343908160971E+03   -0.16894E-03   -0.17115E-03  7488   0.123E-02 0.588E-05
CGA: 111    -0.343908246191E+03   -0.85219E-04   -0.84582E-04  7488   0.228E-02 0.233E-04
CGA: 112    -0.343908392348E+03   -0.14616E-03   -0.14636E-03  7488   0.390E-02-0.503E-05
CGA: 113    -0.343908538985E+03   -0.14664E-03   -0.14701E-03  7488   0.112E-02 0.287E-04
CGA: 114    -0.343908579078E+03   -0.40093E-04   -0.40232E-04  7488   0.115E-02 0.113E-04
CGA: 115    -0.343908629254E+03   -0.50176E-04   -0.50191E-04  7488   0.717E-03 0.144E-04
CGA: 116    -0.343908667570E+03   -0.38316E-04   -0.38176E-04  7488   0.109E-02 0.178E-04
CGA: 117    -0.343908716141E+03   -0.48571E-04   -0.48629E-04  7488   0.883E-03 0.306E-04
CGA: 118    -0.343908767534E+03   -0.51393E-04   -0.51083E-04  7488   0.782E-03 0.266E-04
CGA: 119    -0.343908796877E+03   -0.29344E-04   -0.29376E-04  7488   0.486E-03 0.906E-05
CGA: 120    -0.343908812941E+03   -0.16064E-04   -0.16104E-04  7488   0.210E-03 0.173E-05
CGA: 121    -0.343908832225E+03   -0.19284E-04   -0.19578E-04  7488   0.683E-03-0.661E-05
CGA: 122    -0.343908863267E+03   -0.31042E-04   -0.31044E-04  7488   0.447E-03-0.192E-04
CGA: 123    -0.343908876617E+03   -0.13351E-04   -0.13201E-04  7488   0.138E-03-0.816E-05
CGA: 124    -0.343908882761E+03   -0.61439E-05   -0.61402E-05  7488   0.228E-03-0.501E-05
CGA: 125    -0.343908900899E+03   -0.18137E-04   -0.18866E-04  7488   0.368E-03-0.188E-04
CGA: 126    -0.343908915521E+03   -0.14622E-04   -0.14567E-04  7488   0.263E-03-0.116E-04
SDA: 127    -0.343908921811E+03   -0.62898E-05   -0.62285E-05  7488   0.673E-04-0.415E-05
   1 F= -.34390892E+03 E0= -.34388846E+03  d E =-.343909E+03  mag=    20.0000
       N       E                     dE             d eps       ncg     rms          ort
SDA:   1    -0.343905137681E+03    0.37778E-02    0.00000E+00  7488   0.167E+00 0.000E+00
CGA:   2    -0.343908461464E+03   -0.33238E-02   -0.33187E-02  7488   0.266E-01 0.178E-03
CGA:   3    -0.343908894659E+03   -0.43320E-03   -0.43427E-03  7488   0.985E-03-0.472E-04
CGA:   4    -0.343908924608E+03   -0.29949E-04   -0.29960E-04  7488   0.245E-03 0.120E-05
CGA:   5    -0.343908942513E+03   -0.17905E-04   -0.17833E-04  7488   0.331E-03 0.264E-05
CGA:   6    -0.343908954956E+03   -0.12443E-04   -0.12471E-04  7488   0.142E-03 0.303E-05
CGA:   7    -0.343908962237E+03   -0.72814E-05   -0.72670E-05  7488   0.937E-04 0.310E-05
   2 F= -.34390896E+03 E0= -.34388849E+03  d E =-.404265E-04  mag=    20.0000
       N       E                     dE             d eps       ncg     rms          ort
SDA:   1    -0.343900418135E+03    0.85368E-02    0.00000E+00  7488   0.620E+00 0.000E+00
CGA:   2    -0.343908110448E+03   -0.76923E-02   -0.74264E-02  7488   0.101E-01 0.179E-01
CGA:   3    -0.343908405016E+03   -0.29457E-03   -0.29471E-03  7488   0.318E-02 0.350E-05
CGA:   4    -0.343908495651E+03   -0.90635E-04   -0.90675E-04  7488   0.248E-02 0.133E-05
CGA:   5    -0.343908634994E+03   -0.13934E-03   -0.13931E-03  7488   0.409E-02 0.265E-05
CGA:   6    -0.343908802977E+03   -0.16798E-03   -0.16799E-03  7488   0.196E-02 0.234E-05
CGA:   7    -0.343908864277E+03   -0.61300E-04   -0.61317E-04  7488   0.633E-03 0.149E-05
CGA:   8    -0.343908881366E+03   -0.17089E-04   -0.17099E-04  7488   0.520E-03 0.782E-06
CGA:   9    -0.343908910333E+03   -0.28967E-04   -0.28962E-04  7488   0.472E-03 0.389E-06
CGA:  10    -0.343908935102E+03   -0.24768E-04   -0.24782E-04  7488   0.145E-03-0.135E-05
CGA:  11    -0.343908937876E+03   -0.27746E-05   -0.27729E-05  7488   0.568E-04-0.332E-07
   3 F= -.34390894E+03 E0= -.34388846E+03  d E =0.243608E-04  mag=    20.0000
       N       E                     dE             d eps       ncg     rms          ort
SDA:   1    -0.343839813126E+03    0.69122E-01    0.00000E+00  7488   0.556E+00 0.000E+00
CGA:   2    -0.343853275701E+03   -0.13463E-01   -0.13570E-01  7488   0.301E+00-0.151E-02
CGA:   3    -0.343865693983E+03   -0.12418E-01   -0.12418E-01  7488   0.336E+00-0.669E-03
CGA:   4    -0.343889754677E+03   -0.24061E-01   -0.24090E-01  7488   0.196E+00-0.879E-03
CGA:   5    -0.343896816542E+03   -0.70619E-02   -0.70760E-02  7488   0.756E-01 0.717E-03
CGA:   6    -0.343900946893E+03   -0.41304E-02   -0.41304E-02  7488   0.977E-01 0.176E-04
CGA:   7    -0.343906456593E+03   -0.55097E-02   -0.55078E-02  7488   0.230E-01 0.124E-03
CGA:   8    -0.343907276594E+03   -0.82000E-03   -0.81955E-03  7488   0.986E-02-0.126E-04
CGA:   9    -0.343907633595E+03   -0.35700E-03   -0.35687E-03  7488   0.126E-01-0.518E-05
CGA:  10    -0.343908290238E+03   -0.65664E-03   -0.65655E-03  7488   0.359E-02 0.656E-05
CGA:  11    -0.343908432685E+03   -0.14245E-03   -0.14244E-03  7488   0.178E-02-0.374E-07
CGA:  12    -0.343908506633E+03   -0.73947E-04   -0.73946E-04  7488   0.137E-02-0.140E-06
CGA:  13    -0.343908581067E+03   -0.74435E-04   -0.74444E-04  7488   0.143E-02-0.823E-06
CGA:  14    -0.343908627250E+03   -0.46182E-04   -0.46194E-04  7488   0.967E-03-0.298E-06
CGA:  15    -0.343908662844E+03   -0.35595E-04   -0.35602E-04  7488   0.382E-03 0.104E-05
CGA:  16    -0.343908683547E+03   -0.20702E-04   -0.20694E-04  7488   0.163E-03 0.712E-06
CGA:  17    -0.343908692119E+03   -0.85722E-05   -0.85746E-05  7488   0.174E-03-0.313E-06
   4 F= -.34390869E+03 E0= -.34388829E+03  d E =0.245757E-03  mag=    20.0000
       N       E                     dE             d eps       ncg     rms          ort
SDA:   1    -0.343741612702E+03    0.16707E+00    0.00000E+00  7488   0.112E+01 0.000E+00
CGA:   2    -0.343768822902E+03   -0.27210E-01   -0.27588E-01  7488   0.822E+00-0.590E-02
CGA:   3    -0.343815157784E+03   -0.46335E-01   -0.46380E-01  7488   0.885E+00-0.235E-02
CGA:   4    -0.343862333652E+03   -0.47176E-01   -0.47168E-01  7488   0.285E+00 0.562E-03
CGA:   5    -0.343876112132E+03   -0.13778E-01   -0.13786E-01  7488   0.315E+00-0.987E-03
CGA:   6    -0.343890232999E+03   -0.14121E-01   -0.14121E-01  7488   0.299E+00 0.200E-03
CGA:   7    -0.343900358088E+03   -0.10125E-01   -0.10113E-01  7488   0.123E+00-0.285E-03
CGA:   8    -0.343903614745E+03   -0.32567E-02   -0.32654E-02  7488   0.369E-01-0.780E-04
CGA:   9    -0.343905328722E+03   -0.17140E-02   -0.17141E-02  7488   0.221E-01-0.170E-04
CGA:  10    -0.343906822636E+03   -0.14939E-02   -0.14944E-02  7488   0.281E-01-0.132E-04
CGA:  11    -0.343907442533E+03   -0.61990E-03   -0.61849E-03  7488   0.687E-02 0.283E-04
CGA:  12    -0.343907744802E+03   -0.30227E-03   -0.30227E-03  7488   0.369E-02-0.346E-05
CGA:  13    -0.343907989984E+03   -0.24518E-03   -0.24529E-03  7488   0.307E-02-0.401E-05
CGA:  14    -0.343908084437E+03   -0.94453E-04   -0.94468E-04  7488   0.252E-02-0.121E-05
CGA:  15    -0.343908219937E+03   -0.13550E-03   -0.13554E-03  7488   0.221E-02-0.360E-05
CGA:  16    -0.343908293203E+03   -0.73265E-04   -0.73244E-04  7488   0.581E-03-0.239E-05
CGA:  17    -0.343908313396E+03   -0.20194E-04   -0.20194E-04  7488   0.408E-03 0.200E-07
CGA:  18    -0.343908346565E+03   -0.33169E-04   -0.33144E-04  7488   0.662E-03 0.517E-06
CGA:  19    -0.343908364311E+03   -0.17746E-04   -0.17744E-04  7488   0.301E-03-0.123E-06
CGA:  20    -0.343908376523E+03   -0.12212E-04   -0.12209E-04  7488   0.748E-04-0.738E-06
CGA:  21    -0.343908381872E+03   -0.53495E-05   -0.53265E-05  7488   0.130E-03 0.790E-06
   5 F= -.34390838E+03 E0= -.34388791E+03  d E =0.310247E-03  mag=    20.0000
       N       E                     dE             d eps       ncg     rms          ort
SDA:   1    -0.343830266941E+03    0.78110E-01    0.00000E+00  7488   0.829E+00 0.000E+00
CGA:   2    -0.343844283804E+03   -0.14017E-01   -0.14359E-01  7488   0.292E+00-0.140E-01
CGA:   3    -0.343865673356E+03   -0.21390E-01   -0.21375E-01  7488   0.367E+00 0.456E-03
CGA:   4    -0.343892919807E+03   -0.27246E-01   -0.27262E-01  7488   0.186E+00-0.471E-03
CGA:   5    -0.343898537371E+03   -0.56176E-02   -0.56000E-02  7488   0.122E+00 0.512E-04
CGA:   6    -0.343902726773E+03   -0.41894E-02   -0.41909E-02  7488   0.820E-01 0.330E-04
CGA:   7    -0.343907938410E+03   -0.52116E-02   -0.52092E-02  7488   0.524E-01 0.114E-03
CGA:   8    -0.343909383058E+03   -0.14446E-02   -0.14467E-02  7488   0.149E-01-0.223E-04
CGA:   9    -0.343909934713E+03   -0.55165E-03   -0.55141E-03  7488   0.938E-02-0.992E-05
CGA:  10    -0.343910331985E+03   -0.39727E-03   -0.39729E-03  7488   0.110E-01 0.102E-05
CGA:  11    -0.343910773661E+03   -0.44168E-03   -0.44167E-03  7488   0.409E-02-0.152E-06
CGA:  12    -0.343910929874E+03   -0.15621E-03   -0.15623E-03  7488   0.109E-02 0.859E-06
CGA:  13    -0.343910983964E+03   -0.54090E-04   -0.54097E-04  7488   0.208E-02-0.940E-06
CGA:  14    -0.343911075496E+03   -0.91531E-04   -0.91531E-04  7488   0.837E-03-0.154E-05
CGA:  15    -0.343911118847E+03   -0.43352E-04   -0.43344E-04  7488   0.651E-03 0.773E-06
CGA:  16    -0.343911143677E+03   -0.24830E-04   -0.24835E-04  7488   0.369E-03 0.574E-06
CGA:  17    -0.343911154370E+03   -0.10693E-04   -0.10696E-04  7488   0.161E-03 0.289E-06
CGA:  18    -0.343911161594E+03   -0.72242E-05   -0.72243E-05  7488   0.195E-03-0.895E-07
CGA:  19    -0.343911173395E+03   -0.11801E-04   -0.11794E-04  7488   0.167E-03 0.379E-06
CGA:  20    -0.343911180403E+03   -0.70080E-05   -0.70100E-05  7488   0.675E-04 0.688E-06
   6 F= -.34391118E+03 E0= -.34389072E+03  d E =-.279853E-02  mag=    20.0000
       N       E                     dE             d eps       ncg     rms          ort
SDA:   1    -0.341742366930E+03    0.21688E+01    0.00000E+00  7488   0.624E+01 0.000E+00
CGA:   2    -0.342468715847E+03   -0.72635E+00   -0.70429E+00  7488   0.176E+02 0.346E+00
CGA:   3    -0.343147258613E+03   -0.67854E+00   -0.67216E+00  7488   0.117E+02-0.106E+00
CGA:   4    -0.343466593607E+03   -0.31933E+00   -0.31508E+00  7488   0.372E+01 0.558E-01
CGA:   5    -0.343599032175E+03   -0.13244E+00   -0.13231E+00  7488   0.276E+01-0.290E-02
CGA:   6    -0.343779323537E+03   -0.18029E+00   -0.18034E+00  7488   0.204E+01-0.142E-02
CGA:   7    -0.343842993503E+03   -0.63670E-01   -0.64211E-01  7488   0.113E+01 0.679E-03
CGA:   8    -0.343867893073E+03   -0.24900E-01   -0.24531E-01  7488   0.257E+00 0.925E-02
CGA:   9    -0.343882783911E+03   -0.14891E-01   -0.14912E-01  7488   0.288E+00-0.112E-02
CGA:  10    -0.343897518621E+03   -0.14735E-01   -0.14727E-01  7488   0.241E+00 0.745E-03
CGA:  11    -0.343903408795E+03   -0.58902E-02   -0.58844E-02  7488   0.809E-01 0.120E-03
CGA:  12    -0.343905684960E+03   -0.22762E-02   -0.22795E-02  7488   0.361E-01-0.303E-05
CGA:  13    -0.343907683919E+03   -0.19990E-02   -0.19966E-02  7488   0.486E-01 0.143E-03
CGA:  14    -0.343910928282E+03   -0.32444E-02   -0.32417E-02  7488   0.230E-01 0.104E-03
CGA:  15    -0.343911345884E+03   -0.41760E-03   -0.41951E-03  7488   0.665E-02-0.685E-04
CGA:  16    -0.343911666321E+03   -0.32044E-03   -0.32040E-03  7488   0.644E-02 0.612E-05
CGA:  17    -0.343912209276E+03   -0.54295E-03   -0.54223E-03  7488   0.901E-02 0.173E-04
CGA:  18    -0.343912486807E+03   -0.27753E-03   -0.27810E-03  7488   0.274E-02 0.213E-05
CGA:  19    -0.343912580984E+03   -0.94177E-04   -0.94165E-04  7488   0.229E-02 0.984E-06
CGA:  20    -0.343912656874E+03   -0.75890E-04   -0.75932E-04  7488   0.143E-02 0.192E-05
CGA:  21    -0.343912792625E+03   -0.13575E-03   -0.13492E-03  7488   0.155E-02 0.168E-04
CGA:  22    -0.343912870438E+03   -0.77813E-04   -0.77808E-04  7488   0.152E-02 0.219E-05
CGA:  23    -0.343912922778E+03   -0.52339E-04   -0.52371E-04  7488   0.859E-03 0.544E-06
CGA:  24    -0.343912950406E+03   -0.27628E-04   -0.27626E-04  7488   0.600E-03-0.562E-06
CGA:  25    -0.343912976823E+03   -0.26417E-04   -0.26416E-04  7488   0.422E-03-0.122E-05
CGA:  26    -0.343913019172E+03   -0.42349E-04   -0.42366E-04  7488   0.572E-03-0.322E-06
CGA:  27    -0.343913040379E+03   -0.21207E-04   -0.21203E-04  7488   0.342E-03-0.412E-06
CGA:  28    -0.343913048356E+03   -0.79768E-05   -0.79788E-05  7488   0.108E-03-0.331E-06
   7 F= -.34391305E+03 E0= -.34389276E+03  d E =-.186795E-02  mag=    20.0000
       N       E                     dE             d eps       ncg     rms          ort
SDA:   1    -0.337211347225E+03    0.67017E+01    0.00000E+00  7488   0.282E+02 0.000E+00
CGA:   2    -0.338674110807E+03   -0.14628E+01   -0.14863E+01  7488   0.353E+02-0.245E+01
CGA:   3    -0.340445924973E+03   -0.17718E+01   -0.17647E+01  7488   0.654E+02 0.617E+00
CGA:   4    -0.342361309626E+03   -0.19154E+01   -0.19356E+01  7488   0.996E+01 0.624E+00
CGA:   5    -0.342776103080E+03   -0.41479E+00   -0.41639E+00  7488   0.112E+02 0.116E+00
CGA:   6    -0.343384438420E+03   -0.60834E+00   -0.60833E+00  7488   0.100E+02 0.192E-03
CGA:   7    -0.343622169692E+03   -0.23773E+00   -0.22880E+00  7488   0.389E+01 0.233E+00
CGA:   8    -0.343737065022E+03   -0.11490E+00   -0.11339E+00  7488   0.121E+01 0.990E-02
CGA:   9    -0.343789276143E+03   -0.52211E-01   -0.52220E-01  7488   0.107E+01 0.290E-02
CGA:  10    -0.343827362958E+03   -0.38087E-01   -0.37980E-01  7488   0.121E+01-0.291E-02
CGA:  11    -0.343865743066E+03   -0.38380E-01   -0.38666E-01  7488   0.305E+00 0.323E-02
CGA:  12    -0.343880111899E+03   -0.14369E-01   -0.14371E-01  7488   0.213E+00-0.411E-03
CGA:  13    -0.343885585738E+03   -0.54738E-02   -0.54455E-02  7488   0.149E+00 0.298E-03
CGA:  14    -0.343893103817E+03   -0.75181E-02   -0.75131E-02  7488   0.131E+00 0.420E-03
CGA:  15    -0.343897760757E+03   -0.46569E-02   -0.46609E-02  7488   0.833E-01 0.147E-03
CGA:  16    -0.343901621194E+03   -0.38604E-02   -0.38590E-02  7488   0.667E-01 0.231E-03
CGA:  17    -0.343903167833E+03   -0.15466E-02   -0.15563E-02  7488   0.258E-01-0.172E-03
CGA:  18    -0.343904059172E+03   -0.89134E-03   -0.89082E-03  7488   0.104E-01-0.178E-04
CGA:  19    -0.343905395358E+03   -0.13362E-02   -0.13330E-02  7488   0.351E-01 0.377E-04
CGA:  20    -0.343906192037E+03   -0.79668E-03   -0.80290E-03  7488   0.920E-02-0.117E-03
CGA:  21    -0.343906511431E+03   -0.31939E-03   -0.31952E-03  7488   0.384E-02 0.972E-05
CGA:  22    -0.343906713414E+03   -0.20198E-03   -0.20190E-03  7488   0.475E-02 0.835E-05
CGA:  23    -0.343906996333E+03   -0.28292E-03   -0.28259E-03  7488   0.686E-02 0.190E-04
CGA:  24    -0.343907273340E+03   -0.27701E-03   -0.27709E-03  7488   0.621E-02 0.105E-04
CGA:  25    -0.343907450188E+03   -0.17685E-03   -0.17707E-03  7488   0.150E-02 0.592E-05
CGA:  26    -0.343907542720E+03   -0.92532E-04   -0.92419E-04  7488   0.156E-02 0.619E-05
CGA:  27    -0.343907631742E+03   -0.89022E-04   -0.88935E-04  7488   0.224E-02 0.677E-05
CGA:  28    -0.343907694895E+03   -0.63153E-04   -0.63287E-04  7488   0.122E-02 0.338E-05
CGA:  29    -0.343907786633E+03   -0.91738E-04   -0.91440E-04  7488   0.102E-02 0.968E-05
CGA:  30    -0.343907815087E+03   -0.28455E-04   -0.28511E-04  7488   0.322E-03 0.243E-05
CGA:  31    -0.343907831709E+03   -0.16622E-04   -0.16616E-04  7488   0.470E-03 0.529E-06
SDA:  32    -0.343907851530E+03   -0.19821E-04   -0.19825E-04  7488   0.538E-03 0.751E-06
CGA:  33    -0.343907862339E+03   -0.10809E-04   -0.10808E-04  7488   0.164E-03-0.379E-06
CGA:  34    -0.343907868451E+03   -0.61122E-05   -0.61108E-05  7488   0.132E-03-0.424E-06
   8 F= -.34390787E+03 E0= -.34388750E+03  d E =0.517990E-02  mag=    20.0000
       N       E                     dE             d eps       ncg     rms          ort
SDA:   1    -0.341838579550E+03    0.20693E+01    0.00000E+00  7488   0.792E+01 0.000E+00
CGA:   2    -0.342470816966E+03   -0.63224E+00   -0.70461E+00  7488   0.131E+02-0.183E+01
CGA:   3    -0.343130423454E+03   -0.65961E+00   -0.65745E+00  7488   0.103E+02 0.951E-01
CGA:   4    -0.343423647688E+03   -0.29322E+00   -0.31136E+00  7488   0.387E+01-0.339E-01
CGA:   5    -0.343590581113E+03   -0.16693E+00   -0.16753E+00  7488   0.364E+01 0.599E-01
CGA:   6    -0.343736918898E+03   -0.14634E+00   -0.14539E+00  7488   0.316E+01-0.360E-01
CGA:   7    -0.343855727477E+03   -0.11881E+00   -0.11849E+00  7488   0.820E+00-0.825E-02
CGA:   8    -0.343880980399E+03   -0.25253E-01   -0.25173E-01  7488   0.253E+00 0.197E-03
CGA:   9    -0.343894134311E+03   -0.13154E-01   -0.13138E-01  7488   0.468E+00 0.166E-02
CGA:  10    -0.343914875787E+03   -0.20741E-01   -0.20737E-01  7488   0.148E+00-0.957E-03
CGA:  11    -0.343918796335E+03   -0.39205E-02   -0.39388E-02  7488   0.411E-01-0.166E-03
CGA:  12    -0.343920873606E+03   -0.20773E-02   -0.20774E-02  7488   0.651E-01-0.549E-05
CGA:  13    -0.343924689069E+03   -0.38155E-02   -0.38093E-02  7488   0.578E-01 0.344E-03
CGA:  14    -0.343926172709E+03   -0.14836E-02   -0.14817E-02  7488   0.139E-01 0.444E-04
CGA:  15    -0.343926845858E+03   -0.67315E-03   -0.67315E-03  7488   0.117E-01 0.244E-05
CGA:  16    -0.343927297422E+03   -0.45156E-03   -0.45158E-03  7488   0.834E-02 0.656E-05
CGA:  17    -0.343927603394E+03   -0.30597E-03   -0.30625E-03  7488   0.642E-02 0.152E-04
CGA:  18    -0.343928003382E+03   -0.39999E-03   -0.39971E-03  7488   0.488E-02 0.130E-04
CGA:  19    -0.343928170480E+03   -0.16710E-03   -0.16723E-03  7488   0.277E-02 0.309E-05
CGA:  20    -0.343928254091E+03   -0.83611E-04   -0.83573E-04  7488   0.108E-02-0.369E-06
CGA:  21    -0.343928308015E+03   -0.53924E-04   -0.53924E-04  7488   0.131E-02-0.475E-06
CGA:  22    -0.343928403648E+03   -0.95633E-04   -0.95638E-04  7488   0.211E-02-0.563E-06
CGA:  23    -0.343928471235E+03   -0.67587E-04   -0.67610E-04  7488   0.596E-03-0.202E-05
CGA:  24    -0.343928487737E+03   -0.16502E-04   -0.16492E-04  7488   0.306E-03-0.966E-06
CGA:  25    -0.343928513493E+03   -0.25756E-04   -0.25794E-04  7488   0.595E-03-0.120E-05
CGA:  26    -0.343928540604E+03   -0.27111E-04   -0.27111E-04  7488   0.433E-03-0.429E-06
CGA:  27    -0.343928552621E+03   -0.12017E-04   -0.12021E-04  7488   0.165E-03-0.448E-06
CGA:  28    -0.343928561519E+03   -0.88978E-05   -0.89023E-05  7488   0.143E-03-0.683E-06
   9 F= -.34392856E+03 E0= -.34390841E+03  d E =-.206931E-01  mag=    20.0000
       N       E                     dE             d eps       ncg     rms          ort
SDA:   1    -0.342275077921E+03    0.16535E+01    0.00000E+00  7488   0.131E+02 0.000E+00
CGA:   2    -0.342510503014E+03   -0.23543E+00   -0.27030E+00  7488   0.752E+01-0.111E+01
CGA:   3    -0.343223673939E+03   -0.71317E+00   -0.71493E+00  7488   0.696E+01-0.484E-01
CGA:   4    -0.343443859095E+03   -0.22019E+00   -0.22020E+00  7488   0.366E+01 0.111E-01
CGA:   5    -0.343577828225E+03   -0.13397E+00   -0.13282E+00  7488   0.319E+01-0.260E-01
CGA:   6    -0.343761241024E+03   -0.18341E+00   -0.18219E+00  7488   0.190E+01 0.744E-01
CGA:   7    -0.343832019420E+03   -0.70778E-01   -0.70023E-01  7488   0.113E+01-0.158E-01
CGA:   8    -0.343863411182E+03   -0.31392E-01   -0.31513E-01  7488   0.429E+00-0.726E-03
CGA:   9    -0.343882305278E+03   -0.18894E-01   -0.18889E-01  7488   0.286E+00-0.234E-02
CGA:  10    -0.343893748905E+03   -0.11444E-01   -0.11454E-01  7488   0.205E+00 0.875E-03
CGA:  11    -0.343900888797E+03   -0.71399E-02   -0.71354E-02  7488   0.954E-01-0.795E-04
CGA:  12    -0.343904771558E+03   -0.38828E-02   -0.38856E-02  7488   0.871E-01 0.343E-03
CGA:  13    -0.343907781612E+03   -0.30101E-02   -0.30090E-02  7488   0.205E-01-0.185E-05
CGA:  14    -0.343908817262E+03   -0.10357E-02   -0.10350E-02  7488   0.299E-01 0.719E-04
CGA:  15    -0.343910154447E+03   -0.13372E-02   -0.13372E-02  7488   0.276E-01 0.152E-04
CGA:  16    -0.343911283601E+03   -0.11292E-02   -0.11294E-02  7488   0.605E-02 0.500E-04
CGA:  17    -0.343911483945E+03   -0.20034E-03   -0.20029E-03  7488   0.496E-02 0.253E-05
CGA:  18    -0.343911710994E+03   -0.22705E-03   -0.22701E-03  7488   0.451E-02 0.125E-04
CGA:  19    -0.343911958944E+03   -0.24795E-03   -0.24781E-03  7488   0.319E-02 0.110E-04
CGA:  20    -0.343912076685E+03   -0.11774E-03   -0.11781E-03  7488   0.216E-02 0.402E-05
CGA:  21    -0.343912144003E+03   -0.67318E-04   -0.67324E-04  7488   0.870E-03 0.843E-06
CGA:  22    -0.343912195789E+03   -0.51785E-04   -0.51770E-04  7488   0.117E-02 0.219E-06
CGA:  23    -0.343912237999E+03   -0.42211E-04   -0.42207E-04  7488   0.565E-03-0.139E-05
CGA:  24    -0.343912269906E+03   -0.31907E-04   -0.31927E-04  7488   0.835E-03-0.204E-05
CGA:  25    -0.343912300557E+03   -0.30650E-04   -0.30631E-04  7488   0.384E-03-0.277E-05
CGA:  26    -0.343912315525E+03   -0.14969E-04   -0.14963E-04  7488   0.175E-03-0.191E-05
CGA:  27    -0.343912323989E+03   -0.84639E-05   -0.84723E-05  7488   0.271E-03-0.208E-05
CGA:  28    -0.343912337071E+03   -0.13082E-04   -0.13100E-04  7488   0.187E-03-0.385E-05
CGA:  29    -0.343912345012E+03   -0.79412E-05   -0.79382E-05  7488   0.724E-04-0.303E-05
  10 F= -.34391235E+03 E0= -.34389216E+03  d E =0.162165E-01  mag=    20.0000
       N       E                     dE             d eps       ncg     rms          ort
SDA:   1    -0.343086397758E+03    0.82594E+00    0.00000E+00  7488   0.404E+01 0.000E+00
CGA:   2    -0.343236408915E+03   -0.15001E+00   -0.14912E+00  7488   0.506E+01-0.480E-01
CGA:   3    -0.343462721863E+03   -0.22631E+00   -0.22633E+00  7488   0.512E+01-0.271E-02
CGA:   4    -0.343718926948E+03   -0.25621E+00   -0.25620E+00  7488   0.119E+01-0.398E-03
CGA:   5    -0.343813623422E+03   -0.94696E-01   -0.94689E-01  7488   0.130E+01-0.101E-02
CGA:   6    -0.343881567121E+03   -0.67944E-01   -0.67796E-01  7488   0.104E+01 0.132E-01
CGA:   7    -0.343907054551E+03   -0.25487E-01   -0.25140E-01  7488   0.365E+00 0.640E-02
CGA:   8    -0.343918314425E+03   -0.11260E-01   -0.11260E-01  7488   0.970E-01 0.735E-05
CGA:   9    -0.343927700799E+03   -0.93864E-02   -0.94464E-02  7488   0.140E+00-0.117E-02
CGA:  10    -0.343932443428E+03   -0.47426E-02   -0.47472E-02  7488   0.443E-01 0.760E-04
CGA:  11    -0.343933919696E+03   -0.14763E-02   -0.14794E-02  7488   0.127E-01 0.351E-04
CGA:  12    -0.343935380613E+03   -0.14609E-02   -0.14623E-02  7488   0.260E-01-0.180E-04
CGA:  13    -0.343936153552E+03   -0.77294E-03   -0.77383E-03  7488   0.152E-01-0.220E-04
CGA:  14    -0.343936576493E+03   -0.42294E-03   -0.42258E-03  7488   0.332E-02-0.517E-05
CGA:  15    -0.343936833940E+03   -0.25745E-03   -0.25749E-03  7488   0.288E-02-0.876E-06
CGA:  16    -0.343937004608E+03   -0.17067E-03   -0.17061E-03  7488   0.200E-02 0.404E-05
CGA:  17    -0.343937134278E+03   -0.12967E-03   -0.12965E-03  7488   0.146E-02 0.149E-05
CGA:  18    -0.343937185335E+03   -0.51057E-04   -0.51083E-04  7488   0.704E-03 0.188E-05
CGA:  19    -0.343937221433E+03   -0.36098E-04   -0.36091E-04  7488   0.411E-03 0.267E-05
CGA:  20    -0.343937247499E+03   -0.26066E-04   -0.26046E-04  7488   0.861E-03 0.122E-05
CGA:  21    -0.343937278400E+03   -0.30901E-04   -0.30927E-04  7488   0.470E-03 0.157E-05
CGA:  22    -0.343937298344E+03   -0.19944E-04   -0.19956E-04  7488   0.107E-03 0.171E-05
CGA:  23    -0.343937308918E+03   -0.10574E-04   -0.10481E-04  7488   0.229E-03 0.179E-05
CGA:  24    -0.343937323368E+03   -0.14449E-04   -0.14418E-04  7488   0.125E-03 0.276E-05
CGA:  25    -0.343937327201E+03   -0.38338E-05   -0.38533E-05  7488   0.538E-04 0.811E-06
  11 F= -.34393733E+03 E0= -.34391716E+03  d E =-.249822E-01  mag=    20.0000
       N       E                     dE             d eps       ncg     rms          ort
SDA:   1    -0.343876105675E+03    0.61218E-01    0.00000E+00  7488   0.294E+00 0.000E+00
CGA:   2    -0.343886242092E+03   -0.10136E-01   -0.10158E-01  7488   0.372E+00 0.692E-04
CGA:   3    -0.343906322392E+03   -0.20080E-01   -0.20091E-01  7488   0.351E+00-0.151E-02
CGA:   4    -0.343924364132E+03   -0.18042E-01   -0.18041E-01  7488   0.908E-01 0.110E-03
CGA:   5    -0.343930474139E+03   -0.61100E-02   -0.61096E-02  7488   0.824E-01 0.228E-04
CGA:   6    -0.343934379078E+03   -0.39049E-02   -0.39065E-02  7488   0.101E+00 0.161E-03
CGA:   7    -0.343937304718E+03   -0.29256E-02   -0.29219E-02  7488   0.225E-01 0.307E-04
CGA:   8    -0.343937971535E+03   -0.66682E-03   -0.66674E-03  7488   0.848E-02-0.451E-05
CGA:   9    -0.343938455609E+03   -0.48407E-03   -0.48417E-03  7488   0.100E-01-0.958E-05
CGA:  10    -0.343938949898E+03   -0.49429E-03   -0.49429E-03  7488   0.446E-02-0.176E-05
CGA:  11    -0.343939074518E+03   -0.12462E-03   -0.12460E-03  7488   0.202E-02-0.135E-05
CGA:  12    -0.343939135356E+03   -0.60838E-04   -0.60816E-04  7488   0.116E-02-0.232E-05
CGA:  13    -0.343939256292E+03   -0.12094E-03   -0.12160E-03  7488   0.972E-03-0.114E-04
CGA:  14    -0.343939296125E+03   -0.39833E-04   -0.39804E-04  7488   0.654E-03-0.356E-05
CGA:  15    -0.343939314477E+03   -0.18351E-04   -0.18319E-04  7488   0.362E-03-0.123E-05
CGA:  16    -0.343939331745E+03   -0.17268E-04   -0.17268E-04  7488   0.170E-03-0.959E-06
CGA:  17    -0.343939340021E+03   -0.82763E-05   -0.82764E-05  7488   0.221E-03-0.451E-06
CGA:  18    -0.343939354689E+03   -0.14668E-04   -0.14678E-04  7488   0.167E-03-0.571E-06
CGA:  19    -0.343939359729E+03   -0.50399E-05   -0.50457E-05  7488   0.905E-04 0.290E-06
  12 F= -.34393936E+03 E0= -.34391922E+03  d E =-.203253E-02  mag=    20.0000
       N       E                     dE             d eps       ncg     rms          ort
SDA:   1    -0.342871871363E+03    0.10675E+01    0.00000E+00  7488   0.314E+01 0.000E+00
CGA:   2    -0.343182785340E+03   -0.31091E+00   -0.31553E+00  7488   0.122E+02-0.839E-01
CGA:   3    -0.343608251733E+03   -0.42547E+00   -0.42801E+00  7488   0.471E+01 0.142E-01
CGA:   4    -0.343723384414E+03   -0.11513E+00   -0.11355E+00  7488   0.137E+01 0.408E-01
CGA:   5    -0.343797524969E+03   -0.74141E-01   -0.74078E-01  7488   0.166E+01 0.729E-02
CGA:   6    -0.343902183611E+03   -0.10466E+00   -0.10481E+00  7488   0.819E+00-0.794E-02
CGA:   7    -0.343919342087E+03   -0.17158E-01   -0.16910E-01  7488   0.278E+00 0.774E-02
CGA:   8    -0.343928752087E+03   -0.94100E-02   -0.93911E-02  7488   0.125E+00-0.940E-04
CGA:   9    -0.343937637800E+03   -0.88857E-02   -0.88792E-02  7488   0.128E+00 0.236E-03
CGA:  10    -0.343943747507E+03   -0.61097E-02   -0.61098E-02  7488   0.948E-01 0.278E-04
CGA:  11    -0.343945506813E+03   -0.17593E-02   -0.17803E-02  7488   0.165E-01-0.783E-03
CGA:  12    -0.343947056012E+03   -0.15492E-02   -0.15502E-02  7488   0.243E-01-0.207E-04
CGA:  13    -0.343948600694E+03   -0.15447E-02   -0.15452E-02  7488   0.961E-02-0.282E-04
CGA:  14    -0.343948816107E+03   -0.21541E-03   -0.21586E-03  7488   0.457E-02-0.153E-04
CGA:  15    -0.343949087414E+03   -0.27131E-03   -0.27128E-03  7488   0.563E-02 0.109E-05
CGA:  16    -0.343949300542E+03   -0.21313E-03   -0.21322E-03  7488   0.340E-02 0.215E-05
CGA:  17    -0.343949514905E+03   -0.21436E-03   -0.21430E-03  7488   0.278E-02 0.395E-05
CGA:  18    -0.343949663941E+03   -0.14904E-03   -0.14903E-03  7488   0.111E-02 0.173E-05
CGA:  19    -0.343949721672E+03   -0.57732E-04   -0.57726E-04  7488   0.137E-02 0.136E-05
CGA:  20    -0.343949768024E+03   -0.46351E-04   -0.46370E-04  7488   0.124E-02 0.118E-05
CGA:  21    -0.343949874759E+03   -0.10674E-03   -0.10657E-03  7488   0.124E-02 0.450E-05
CGA:  22    -0.343949927722E+03   -0.52963E-04   -0.52973E-04  7488   0.393E-03 0.746E-06
CGA:  23    -0.343949943270E+03   -0.15547E-04   -0.15554E-04  7488   0.371E-03 0.440E-06
CGA:  24    -0.343949990549E+03   -0.47279E-04   -0.46958E-04  7488   0.490E-03 0.412E-05
CGA:  25    -0.343950012181E+03   -0.21632E-04   -0.21666E-04  7488   0.252E-03 0.284E-05
CGA:  26    -0.343950017502E+03   -0.53208E-05   -0.53487E-05  7488   0.952E-04 0.542E-06
CGA:  27    -0.343950028696E+03   -0.11195E-04   -0.11075E-04  7488   0.127E-03 0.174E-05
CGA:  28    -0.343950036242E+03   -0.75458E-05   -0.75415E-05  7488   0.111E-03 0.116E-05
  13 F= -.34395004E+03 E0= -.34393004E+03  d E =-.106765E-01  mag=    20.0000
       N       E                     dE             d eps       ncg     rms          ort
SDA:   1    -0.342031405282E+03    0.19186E+01    0.00000E+00  7488   0.660E+01 0.000E+00
CGA:   2    -0.342491949538E+03   -0.46054E+00   -0.46005E+00  7488   0.162E+02 0.247E-01
CGA:   3    -0.343149309377E+03   -0.65736E+00   -0.64523E+00  7488   0.897E+01-0.922E-01
CGA:   4    -0.343453528883E+03   -0.30422E+00   -0.30786E+00  7488   0.376E+01-0.825E-03
CGA:   5    -0.343601561801E+03   -0.14803E+00   -0.14938E+00  7488   0.275E+01 0.184E-01
CGA:   6    -0.343809924745E+03   -0.20836E+00   -0.20986E+00  7488   0.208E+01-0.523E-01
CGA:   7    -0.343872868392E+03   -0.62944E-01   -0.61609E-01  7488   0.574E+00 0.144E-01
CGA:   8    -0.343888102844E+03   -0.15234E-01   -0.15408E-01  7488   0.367E+00-0.302E-02
CGA:   9    -0.343909232143E+03   -0.21129E-01   -0.21125E-01  7488   0.314E+00 0.412E-03
CGA:  10    -0.343923929705E+03   -0.14698E-01   -0.14699E-01  7488   0.134E+00 0.163E-03
CGA:  11    -0.343927479544E+03   -0.35498E-02   -0.35422E-02  7488   0.514E-01 0.157E-03
CGA:  12    -0.343929542739E+03   -0.20632E-02   -0.20667E-02  7488   0.507E-01 0.945E-04
CGA:  13    -0.343932382811E+03   -0.28401E-02   -0.28395E-02  7488   0.602E-01 0.682E-04
CGA:  14    -0.343934870674E+03   -0.24879E-02   -0.24893E-02  7488   0.993E-02 0.657E-04
CGA:  15    -0.343935237264E+03   -0.36659E-03   -0.36653E-03  7488   0.114E-01 0.406E-05
CGA:  16    -0.343935789993E+03   -0.55273E-03   -0.55277E-03  7488   0.898E-02 0.444E-04
CGA:  17    -0.343936224275E+03   -0.43428E-03   -0.43429E-03  7488   0.584E-02 0.891E-05
CGA:  18    -0.343936474018E+03   -0.24974E-03   -0.24988E-03  7488   0.484E-02 0.120E-04
CGA:  19    -0.343936677516E+03   -0.20350E-03   -0.20352E-03  7488   0.250E-02 0.417E-05
CGA:  20    -0.343936745381E+03   -0.67865E-04   -0.67991E-04  7488   0.148E-02-0.951E-06
CGA:  21    -0.343936903685E+03   -0.15830E-03   -0.15823E-03  7488   0.230E-02 0.757E-06
CGA:  22    -0.343937005526E+03   -0.10184E-03   -0.10186E-03  7488   0.181E-02 0.577E-06
CGA:  23    -0.343937056202E+03   -0.50676E-04   -0.50647E-04  7488   0.688E-03-0.936E-06
CGA:  24    -0.343937093985E+03   -0.37783E-04   -0.37786E-04  7488   0.962E-03-0.780E-06
CGA:  25    -0.343937153612E+03   -0.59627E-04   -0.59654E-04  7488   0.101E-02-0.215E-05
CGA:  26    -0.343937196116E+03   -0.42503E-04   -0.42494E-04  7488   0.419E-03-0.229E-05
CGA:  27    -0.343937206143E+03   -0.10027E-04   -0.10020E-04  7488   0.203E-03-0.351E-06
CGA:  28    -0.343937227106E+03   -0.20963E-04   -0.20932E-04  7488   0.349E-03 0.324E-06
CGA:  29    -0.343937241894E+03   -0.14788E-04   -0.14785E-04  7488   0.229E-03-0.451E-06
CGA:  30    -0.343937249166E+03   -0.72723E-05   -0.72635E-05  7488   0.109E-03-0.644E-06
  14 F= -.34393725E+03 E0= -.34391719E+03  d E =0.127871E-01  mag=    20.0000
       N       E                     dE             d eps       ncg     rms          ort
SDA:   1    -0.343074986392E+03    0.86226E+00    0.00000E+00  7488   0.464E+01 0.000E+00
CGA:   2    -0.343218493202E+03   -0.14351E+00   -0.14263E+00  7488   0.458E+01 0.432E-02
CGA:   3    -0.343521963539E+03   -0.30347E+00   -0.30253E+00  7488   0.546E+01 0.395E-01
CGA:   4    -0.343690140956E+03   -0.16818E+00   -0.16685E+00  7488   0.210E+01 0.102E-01
CGA:   5    -0.343780977628E+03   -0.90837E-01   -0.90565E-01  7488   0.115E+01-0.208E-01
CGA:   6    -0.343889645961E+03   -0.10867E+00   -0.10879E+00  7488   0.107E+01-0.267E-02
CGA:   7    -0.343923460791E+03   -0.33815E-01   -0.34228E-01  7488   0.459E+00-0.143E-02
CGA:   8    -0.343933631909E+03   -0.10171E-01   -0.10119E-01  7488   0.131E+00 0.147E-02
CGA:   9    -0.343944074433E+03   -0.10443E-01   -0.10447E-01  7488   0.163E+00-0.122E-03
CGA:  10    -0.343950825075E+03   -0.67506E-02   -0.67511E-02  7488   0.619E-01 0.447E-04
CGA:  11    -0.343952787254E+03   -0.19622E-02   -0.19704E-02  7488   0.249E-01-0.434E-05
CGA:  12    -0.343953797545E+03   -0.10103E-02   -0.10102E-02  7488   0.239E-01-0.109E-05
CGA:  13    -0.343954834973E+03   -0.10374E-02   -0.10377E-02  7488   0.225E-01 0.275E-04
CGA:  14    -0.343955768498E+03   -0.93353E-03   -0.93344E-03  7488   0.782E-02-0.228E-05
CGA:  15    -0.343956328375E+03   -0.55988E-03   -0.55967E-03  7488   0.554E-02 0.732E-05
CGA:  16    -0.343956485551E+03   -0.15718E-03   -0.15713E-03  7488   0.306E-02 0.326E-05
CGA:  17    -0.343956600024E+03   -0.11447E-03   -0.11451E-03  7488   0.238E-02 0.122E-05
CGA:  18    -0.343956814337E+03   -0.21431E-03   -0.21403E-03  7488   0.244E-02 0.639E-05
CGA:  19    -0.343956876768E+03   -0.62431E-04   -0.62497E-04  7488   0.534E-03 0.133E-06
CGA:  20    -0.343956908667E+03   -0.31899E-04   -0.31876E-04  7488   0.750E-03 0.151E-05
CGA:  21    -0.343956937010E+03   -0.28343E-04   -0.28360E-04  7488   0.764E-03 0.525E-06
CGA:  22    -0.343956988957E+03   -0.51947E-04   -0.51941E-04  7488   0.288E-03-0.178E-06
CGA:  23    -0.343957000208E+03   -0.11251E-04   -0.11254E-04  7488   0.204E-03-0.112E-06
CGA:  24    -0.343957010365E+03   -0.10157E-04   -0.10156E-04  7488   0.300E-03 0.325E-06
CGA:  25    -0.343957025221E+03   -0.14856E-04   -0.14856E-04  7488   0.220E-03 0.834E-07
CGA:  26    -0.343957033430E+03   -0.82095E-05   -0.82064E-05  7488   0.105E-03-0.530E-06
  15 F= -.34395703E+03 E0= -.34393702E+03  d E =-.197843E-01  mag=    20.0000
       N       E                     dE             d eps       ncg     rms          ort
SDA:   1    -0.343929023402E+03    0.28002E-01    0.00000E+00  7488   0.200E+00 0.000E+00
CGA:   2    -0.343934271449E+03   -0.52480E-02   -0.52340E-02  7488   0.107E+00 0.224E-03
CGA:   3    -0.343940212112E+03   -0.59407E-02   -0.59461E-02  7488   0.173E+00-0.400E-03
CGA:   4    -0.343947956725E+03   -0.77446E-02   -0.77449E-02  7488   0.112E+00 0.568E-04
CGA:   5    -0.343951501038E+03   -0.35443E-02   -0.35537E-02  7488   0.326E-01 0.234E-04
CGA:   6    -0.343953371461E+03   -0.18704E-02   -0.18701E-02  7488   0.303E-01 0.193E-04
CGA:   7    -0.343955528526E+03   -0.21571E-02   -0.21584E-02  7488   0.873E-02-0.473E-04
CGA:   8    -0.343955895225E+03   -0.36670E-03   -0.36659E-03  7488   0.370E-02-0.100E-04
CGA:   9    -0.343956063292E+03   -0.16807E-03   -0.16807E-03  7488   0.459E-02 0.328E-07
CGA:  10    -0.343956244518E+03   -0.18123E-03   -0.18118E-03  7488   0.254E-02-0.291E-05
CGA:  11    -0.343956321178E+03   -0.76660E-04   -0.76648E-04  7488   0.102E-02-0.189E-05
CGA:  12    -0.343956361556E+03   -0.40378E-04   -0.40364E-04  7488   0.479E-03-0.194E-05
CGA:  13    -0.343956398696E+03   -0.37141E-04   -0.37199E-04  7488   0.360E-03-0.178E-05
CGA:  14    -0.343956419124E+03   -0.20428E-04   -0.20446E-04  7488   0.370E-03-0.190E-05
CGA:  15    -0.343956431779E+03   -0.12655E-04   -0.12636E-04  7488   0.273E-03-0.149E-05
CGA:  16    -0.343956440502E+03   -0.87233E-05   -0.87099E-05  7488   0.649E-04-0.805E-06
  16 F= -.34395644E+03 E0= -.34393642E+03  d E =0.592928E-03  mag=    20.0000
       N       E                     dE             d eps       ncg     rms          ort
SDA:   1    -0.343885317251E+03    0.71115E-01    0.00000E+00  7488   0.388E+00 0.000E+00
CGA:   2    -0.343896469226E+03   -0.11152E-01   -0.11149E-01  7488   0.250E+00 0.984E-04
CGA:   3    -0.343925967925E+03   -0.29499E-01   -0.29583E-01  7488   0.347E+00-0.132E-02
CGA:   4    -0.343942322289E+03   -0.16354E-01   -0.16359E-01  7488   0.835E-01 0.128E-02
CGA:   5    -0.343947442940E+03   -0.51207E-02   -0.51168E-02  7488   0.862E-01 0.224E-03
CGA:   6    -0.343949748756E+03   -0.23058E-02   -0.23174E-02  7488   0.508E-01-0.183E-03
CGA:   7    -0.343952211199E+03   -0.24624E-02   -0.24624E-02  7488   0.185E-01-0.114E-03
CGA:   8    -0.343953281401E+03   -0.10702E-02   -0.10704E-02  7488   0.114E-01-0.130E-04
CGA:   9    -0.343953628490E+03   -0.34709E-03   -0.34694E-03  7488   0.489E-02 0.825E-06
CGA:  10    -0.343953823520E+03   -0.19503E-03   -0.19507E-03  7488   0.334E-02 0.285E-06
CGA:  11    -0.343953959125E+03   -0.13561E-03   -0.13557E-03  7488   0.392E-02-0.259E-05
CGA:  12    -0.343954151898E+03   -0.19277E-03   -0.19278E-03  7488   0.632E-03-0.288E-05
CGA:  13    -0.343954185411E+03   -0.33513E-04   -0.33515E-04  7488   0.558E-03-0.713E-06
CGA:  14    -0.343954216448E+03   -0.31037E-04   -0.31049E-04  7488   0.928E-03-0.167E-05
CGA:  15    -0.343954246696E+03   -0.30248E-04   -0.30207E-04  7488   0.262E-03-0.237E-05
CGA:  16    -0.343954256212E+03   -0.95164E-05   -0.95036E-05  7488   0.876E-04-0.132E-05
  17 F= -.34395426E+03 E0= -.34393423E+03  d E =0.218429E-02  mag=    20.0000
       N       E                     dE             d eps       ncg     rms          ort
SDA:   1    -0.343546544006E+03    0.40770E+00    0.00000E+00  7488   0.206E+01 0.000E+00
CGA:   2    -0.343595421986E+03   -0.48878E-01   -0.47551E-01  7488   0.161E+01 0.311E-01
CGA:   3    -0.343775543583E+03   -0.18012E+00   -0.18008E+00  7488   0.244E+01 0.365E-03
CGA:   4    -0.343870362440E+03   -0.94819E-01   -0.94485E-01  7488   0.781E+00-0.389E-02
CGA:   5    -0.343895224750E+03   -0.24862E-01   -0.24936E-01  7488   0.379E+00-0.301E-03
CGA:   6    -0.343920486745E+03   -0.25262E-01   -0.25250E-01  7488   0.453E+00 0.550E-03
CGA:   7    -0.343933420196E+03   -0.12933E-01   -0.12834E-01  7488   0.247E+00 0.127E-02
CGA:   8    -0.343941525089E+03   -0.81049E-02   -0.80605E-02  7488   0.351E-01 0.848E-04
CGA:   9    -0.343943643922E+03   -0.21188E-02   -0.21189E-02  7488   0.411E-01-0.115E-05
CGA:  10    -0.343946589399E+03   -0.29455E-02   -0.29437E-02  7488   0.276E-01 0.718E-04
CGA:  11    -0.343947151614E+03   -0.56222E-03   -0.56274E-03  7488   0.642E-02-0.134E-04
CGA:  12    -0.343947453592E+03   -0.30198E-03   -0.30195E-03  7488   0.914E-02-0.682E-05
CGA:  13    -0.343947937590E+03   -0.48400E-03   -0.48403E-03  7488   0.540E-02-0.714E-05
CGA:  14    -0.343948184771E+03   -0.24718E-03   -0.24721E-03  7488   0.164E-02 0.145E-05
CGA:  15    -0.343948290881E+03   -0.10611E-03   -0.10609E-03  7488   0.114E-02 0.981E-06
CGA:  16    -0.343948338212E+03   -0.47331E-04   -0.47325E-04  7488   0.985E-03-0.136E-05
CGA:  17    -0.343948377297E+03   -0.39085E-04   -0.39078E-04  7488   0.896E-03-0.129E-05
CGA:  18    -0.343948419333E+03   -0.42036E-04   -0.42036E-04  7488   0.798E-03-0.801E-07
CGA:  19    -0.343948447186E+03   -0.27853E-04   -0.27867E-04  7488   0.191E-03 0.513E-06
CGA:  20    -0.343948456867E+03   -0.96809E-05   -0.96801E-05  7488   0.156E-03 0.189E-07
CGA:  21    -0.343948473576E+03   -0.16710E-04   -0.16673E-04  7488   0.248E-03 0.376E-06
CGA:  22    -0.343948487230E+03   -0.13654E-04   -0.13651E-04  7488   0.136E-03 0.465E-06
CGA:  23    -0.343948490540E+03   -0.33096E-05   -0.33195E-05  7488   0.473E-04 0.158E-06
  18 F= -.34394849E+03 E0= -.34392845E+03  d E =0.576567E-02  mag=    20.0000
       N       E                     dE             d eps       ncg     rms          ort
SDA:   1    -0.343693620611E+03    0.25487E+00    0.00000E+00  7488   0.945E+00 0.000E+00
CGA:   2    -0.343739042903E+03   -0.45422E-01   -0.45451E-01  7488   0.163E+01 0.638E-02
CGA:   3    -0.343841585433E+03   -0.10254E+00   -0.10277E+00  7488   0.156E+01-0.127E-01
CGA:   4    -0.343881418223E+03   -0.39833E-01   -0.39814E-01  7488   0.574E+00 0.987E-03
CGA:   5    -0.343904298372E+03   -0.22880E-01   -0.22792E-01  7488   0.296E+00-0.224E-02
CGA:   6    -0.343931484403E+03   -0.27186E-01   -0.27191E-01  7488   0.207E+00-0.124E-03
CGA:   7    -0.343938497443E+03   -0.70130E-02   -0.70116E-02  7488   0.791E-01 0.127E-05
CGA:   8    -0.343940690221E+03   -0.21928E-02   -0.22017E-02  7488   0.538E-01-0.112E-03
CGA:   9    -0.343943447719E+03   -0.27575E-02   -0.27574E-02  7488   0.247E-01 0.277E-04
CGA:  10    -0.343944661164E+03   -0.12134E-02   -0.12135E-02  7488   0.144E-01 0.466E-04
CGA:  11    -0.343945447887E+03   -0.78672E-03   -0.78686E-03  7488   0.167E-01-0.907E-05
CGA:  12    -0.343945821130E+03   -0.37324E-03   -0.37451E-03  7488   0.283E-02-0.239E-04
CGA:  13    -0.343946055619E+03   -0.23449E-03   -0.23427E-03  7488   0.483E-02 0.611E-05
CGA:  14    -0.343946277400E+03   -0.22178E-03   -0.22181E-03  7488   0.300E-02 0.598E-05
CGA:  15    -0.343946372054E+03   -0.94654E-04   -0.94739E-04  7488   0.993E-03 0.256E-05
CGA:  16    -0.343946401847E+03   -0.29793E-04   -0.29808E-04  7488   0.636E-03 0.403E-06
CGA:  17    -0.343946434890E+03   -0.33043E-04   -0.33042E-04  7488   0.710E-03 0.117E-06
CGA:  18    -0.343946485605E+03   -0.50715E-04   -0.50697E-04  7488   0.341E-03 0.429E-06
CGA:  19    -0.343946497428E+03   -0.11823E-04   -0.11835E-04  7488   0.238E-03 0.627E-06
CGA:  20    -0.343946504999E+03   -0.75706E-05   -0.75790E-05  7488   0.148E-03 0.252E-06
CGA:  21    -0.343946515720E+03   -0.10721E-04   -0.10720E-04  7488   0.108E-03-0.981E-07
CGA:  22    -0.343946522888E+03   -0.71675E-05   -0.71705E-05  7488   0.175E-03-0.291E-06
  19 F= -.34394652E+03 E0= -.34392645E+03  d E =0.196765E-02  mag=    20.0000
       N       E                     dE             d eps       ncg     rms          ort
SDA:   1    -0.343789628833E+03    0.15689E+00    0.00000E+00  7488   0.849E+00 0.000E+00
CGA:   2    -0.343814051193E+03   -0.24422E-01   -0.23956E-01  7488   0.757E+00 0.490E-02
CGA:   3    -0.343859809710E+03   -0.45759E-01   -0.45714E-01  7488   0.900E+00 0.258E-02
CGA:   4    -0.343907923795E+03   -0.48114E-01   -0.48138E-01  7488   0.365E+00-0.302E-02
CGA:   5    -0.343919827240E+03   -0.11903E-01   -0.11931E-01  7488   0.181E+00 0.135E-03
CGA:   6    -0.343932104813E+03   -0.12278E-01   -0.12270E-01  7488   0.204E+00 0.339E-03
CGA:   7    -0.343941162406E+03   -0.90576E-02   -0.90580E-02  7488   0.692E-01 0.866E-04
CGA:   8    -0.343942787281E+03   -0.16249E-02   -0.16169E-02  7488   0.321E-01 0.207E-03
CGA:   9    -0.343944231077E+03   -0.14438E-02   -0.14439E-02  7488   0.196E-01 0.305E-04
CGA:  10    -0.343945431685E+03   -0.12006E-02   -0.12007E-02  7488   0.769E-02-0.229E-05
CGA:  11    -0.343945866088E+03   -0.43440E-03   -0.43435E-03  7488   0.846E-02 0.483E-05
CGA:  12    -0.343946080892E+03   -0.21480E-03   -0.21460E-03  7488   0.315E-02 0.593E-05
CGA:  13    -0.343946230480E+03   -0.14959E-03   -0.14959E-03  7488   0.195E-02 0.929E-05
CGA:  14    -0.343946334747E+03   -0.10427E-03   -0.10422E-03  7488   0.198E-02 0.801E-05
CGA:  15    -0.343946441631E+03   -0.10688E-03   -0.10684E-03  7488   0.147E-02 0.713E-05
CGA:  16    -0.343946484745E+03   -0.43114E-04   -0.43163E-04  7488   0.379E-03 0.237E-05
CGA:  17    -0.343946495493E+03   -0.10749E-04   -0.10765E-04  7488   0.300E-03 0.494E-06
CGA:  18    -0.343946528994E+03   -0.33501E-04   -0.33361E-04  7488   0.327E-03 0.210E-05
CGA:  19    -0.343946542991E+03   -0.13997E-04   -0.13993E-04  7488   0.101E-03-0.662E-06
CGA:  20    -0.343946546015E+03   -0.30238E-05   -0.30184E-05  7488   0.955E-04-0.322E-06
  20 F= -.34394655E+03 E0= -.34392653E+03  d E =-.231272E-04  mag=    20.0000
       N       E                     dE             d eps       ncg     rms          ort
SDA:   1    -0.343904412617E+03    0.42130E-01    0.00000E+00  7488   0.873E+00 0.000E+00
CGA:   2    -0.343916758081E+03   -0.12345E-01   -0.12825E-01  7488   0.124E+00-0.260E-01
CGA:   3    -0.343925266470E+03   -0.85084E-02   -0.85280E-02  7488   0.168E+00-0.695E-03
CGA:   4    -0.343936104330E+03   -0.10838E-01   -0.10828E-01  7488   0.141E+00 0.469E-03
CGA:   5    -0.343939520088E+03   -0.34158E-02   -0.34045E-02  7488   0.496E-01 0.252E-03
CGA:   6    -0.343942208344E+03   -0.26883E-02   -0.26880E-02  7488   0.523E-01 0.305E-04
CGA:   7    -0.343944362425E+03   -0.21541E-02   -0.21530E-02  7488   0.327E-01-0.565E-04
CGA:   8    -0.343945638367E+03   -0.12759E-02   -0.12753E-02  7488   0.117E-01-0.377E-04
CGA:   9    -0.343945997202E+03   -0.35884E-03   -0.35815E-03  7488   0.720E-02-0.515E-05
CGA:  10    -0.343946276165E+03   -0.27896E-03   -0.27896E-03  7488   0.385E-02-0.194E-05
CGA:  11    -0.343946459432E+03   -0.18327E-03   -0.18327E-03  7488   0.199E-02 0.292E-06
CGA:  12    -0.343946545299E+03   -0.85867E-04   -0.85868E-04  7488   0.212E-02-0.426E-06
CGA:  13    -0.343946616136E+03   -0.70837E-04   -0.70793E-04  7488   0.749E-03-0.163E-05
CGA:  14    -0.343946648302E+03   -0.32166E-04   -0.32162E-04  7488   0.343E-03-0.143E-05
CGA:  15    -0.343946664803E+03   -0.16501E-04   -0.16506E-04  7488   0.536E-03-0.169E-05
CGA:  16    -0.343946694245E+03   -0.29443E-04   -0.29482E-04  7488   0.352E-03-0.420E-05
CGA:  17    -0.343946703809E+03   -0.95637E-05   -0.95329E-05  7488   0.924E-04-0.153E-05
  21 F= -.34394670E+03 E0= -.34392670E+03  d E =-.157794E-03  mag=    20.0000
       N       E                     dE             d eps       ncg     rms          ort
SDA:   1    -0.343905237329E+03    0.41457E-01    0.00000E+00  7488   0.493E+00 0.000E+00
CGA:   2    -0.343913003849E+03   -0.77665E-02   -0.80240E-02  7488   0.118E+00-0.115E-01
CGA:   3    -0.343922076662E+03   -0.90728E-02   -0.90929E-02  7488   0.251E+00-0.519E-03
CGA:   4    -0.343936874091E+03   -0.14797E-01   -0.14789E-01  7488   0.109E+00 0.456E-03
CGA:   5    -0.343939760934E+03   -0.28868E-02   -0.28926E-02  7488   0.334E-01-0.585E-04
CGA:   6    -0.343941564687E+03   -0.18038E-02   -0.18015E-02  7488   0.433E-01 0.167E-03
CGA:   7    -0.343943137552E+03   -0.15729E-02   -0.15715E-02  7488   0.273E-01-0.430E-04
CGA:   8    -0.343944083799E+03   -0.94625E-03   -0.94501E-03  7488   0.600E-02-0.272E-04
CGA:   9    -0.343944409972E+03   -0.32617E-03   -0.32622E-03  7488   0.433E-02-0.269E-05
CGA:  10    -0.343944549278E+03   -0.13931E-03   -0.13940E-03  7488   0.284E-02 0.315E-05
CGA:  11    -0.343944644869E+03   -0.95591E-04   -0.95615E-04  7488   0.134E-02 0.386E-05
CGA:  12    -0.343944762341E+03   -0.11747E-03   -0.11722E-03  7488   0.146E-02 0.572E-05
CGA:  13    -0.343944797498E+03   -0.35156E-04   -0.35179E-04  7488   0.263E-03 0.148E-05
CGA:  14    -0.343944809618E+03   -0.12120E-04   -0.12120E-04  7488   0.397E-03 0.293E-06
CGA:  15    -0.343944832130E+03   -0.22512E-04   -0.22515E-04  7488   0.363E-03-0.277E-06
CGA:  16    -0.343944844758E+03   -0.12628E-04   -0.12618E-04  7488   0.665E-04-0.106E-05
CGA:  17    -0.343944848033E+03   -0.32752E-05   -0.32769E-05  7488   0.904E-04-0.395E-06
  22 F= -.34394485E+03 E0= -.34392483E+03  d E =0.185578E-02  mag=    20.0000
       N       E                     dE             d eps       ncg     rms          ort
SDA:   1    -0.339639411312E+03    0.43054E+01    0.00000E+00  7488   0.311E+02 0.000E+00
CGA:   2    -0.340171885305E+03   -0.53247E+00   -0.65132E+00  7488   0.186E+02-0.370E+01
CGA:   3    -0.342364479131E+03   -0.21926E+01   -0.22778E+01  7488   0.334E+02-0.130E+01
CGA:   4    -0.343061826791E+03   -0.69735E+00   -0.72964E+00  7488   0.809E+01-0.747E+00
CGA:   5    -0.343305325446E+03   -0.24350E+00   -0.23867E+00  7488   0.443E+01 0.217E-01
CGA:   6    -0.343576791500E+03   -0.27147E+00   -0.26769E+00  7488   0.552E+01 0.203E+00
CGA:   7    -0.343759180830E+03   -0.18239E+00   -0.17802E+00  7488   0.222E+01 0.695E-02
CGA:   8    -0.343828749309E+03   -0.69568E-01   -0.69737E-01  7488   0.787E+00 0.254E-02
CGA:   9    -0.343852140159E+03   -0.23391E-01   -0.23315E-01  7488   0.430E+00 0.237E-03
CGA:  10    -0.343874659118E+03   -0.22519E-01   -0.22441E-01  7488   0.488E+00 0.686E-02
CGA:  11    -0.343895750597E+03   -0.21091E-01   -0.21080E-01  7488   0.307E+00-0.188E-02
CGA:  12    -0.343903255818E+03   -0.75052E-02   -0.76039E-02  7488   0.655E-01-0.136E-02
CGA:  13    -0.343906676406E+03   -0.34206E-02   -0.34219E-02  7488   0.995E-01-0.962E-04
CGA:  14    -0.343911316836E+03   -0.46404E-02   -0.46361E-02  7488   0.752E-01 0.110E-02
CGA:  15    -0.343913936011E+03   -0.26192E-02   -0.26162E-02  7488   0.253E-01-0.741E-04
CGA:  16    -0.343914742765E+03   -0.80675E-03   -0.80923E-03  7488   0.163E-01 0.250E-04
CGA:  17    -0.343915486423E+03   -0.74366E-03   -0.74365E-03  7488   0.124E-01 0.229E-05
CGA:  18    -0.343916119969E+03   -0.63355E-03   -0.63270E-03  7488   0.155E-01 0.705E-04
CGA:  19    -0.343916792139E+03   -0.67217E-03   -0.67213E-03  7488   0.875E-02-0.293E-04
CGA:  20    -0.343917093127E+03   -0.30099E-03   -0.30151E-03  7488   0.493E-02 0.122E-04
CGA:  21    -0.343917312994E+03   -0.21987E-03   -0.21986E-03  7488   0.446E-02 0.240E-05
CGA:  22    -0.343917513462E+03   -0.20047E-03   -0.20043E-03  7488   0.343E-02 0.166E-04
CGA:  23    -0.343917712416E+03   -0.19895E-03   -0.19895E-03  7488   0.579E-02-0.258E-06
CGA:  24    -0.343917967030E+03   -0.25461E-03   -0.25463E-03  7488   0.206E-02 0.221E-04
CGA:  25    -0.343918037750E+03   -0.70720E-04   -0.70749E-04  7488   0.144E-02 0.266E-05
CGA:  26    -0.343918103551E+03   -0.65801E-04   -0.65786E-04  7488   0.141E-02 0.534E-05
CGA:  27    -0.343918204131E+03   -0.10058E-03   -0.10045E-03  7488   0.201E-02 0.422E-05
CGA:  28    -0.343918268835E+03   -0.64705E-04   -0.64776E-04  7488   0.761E-03 0.190E-05
CGA:  29    -0.343918296651E+03   -0.27816E-04   -0.27820E-04  7488   0.407E-03 0.316E-06
CGA:  30    -0.343918314184E+03   -0.17533E-04   -0.17535E-04  7488   0.437E-03 0.696E-06
CGA:  31    -0.343918342236E+03   -0.28051E-04   -0.28011E-04  7488   0.508E-03 0.155E-05
SDA:  32    -0.343918362059E+03   -0.19823E-04   -0.19828E-04  7488   0.282E-03 0.165E-06
CGA:  33    -0.343918366597E+03   -0.45377E-05   -0.45313E-05  7488   0.696E-04-0.522E-06
  23 F= -.34391837E+03 E0= -.34389831E+03  d E =0.264814E-01  mag=    20.0000
       N       E                     dE             d eps       ncg     rms          ort
SDA:   1    -0.342781487454E+03    0.11369E+01    0.00000E+00  7488   0.386E+01 0.000E+00
CGA:   2    -0.342982904277E+03   -0.20142E+00   -0.20312E+00  7488   0.942E+01-0.154E+00
CGA:   3    -0.343461053324E+03   -0.47815E+00   -0.47783E+00  7488   0.633E+01 0.303E-01
CGA:   4    -0.343671225369E+03   -0.21017E+00   -0.20764E+00  7488   0.196E+01-0.133E-01
CGA:   5    -0.343745121549E+03   -0.73896E-01   -0.74040E-01  7488   0.196E+01 0.587E-02
CGA:   6    -0.343829990542E+03   -0.84869E-01   -0.84895E-01  7488   0.187E+01 0.554E-02
CGA:   7    -0.343886449778E+03   -0.56459E-01   -0.56270E-01  7488   0.533E+00 0.534E-03
CGA:   8    -0.343902241875E+03   -0.15792E-01   -0.15663E-01  7488   0.149E+00 0.184E-03
CGA:   9    -0.343912358848E+03   -0.10117E-01   -0.10111E-01  7488   0.276E+00 0.239E-03
CGA:  10    -0.343920081694E+03   -0.77228E-02   -0.76978E-02  7488   0.120E+00 0.165E-03
CGA:  11    -0.343924278000E+03   -0.41963E-02   -0.41966E-02  7488   0.297E-01 0.105E-04
CGA:  12    -0.343926445291E+03   -0.21673E-02   -0.21652E-02  7488   0.360E-01 0.674E-04
CGA:  13    -0.343927330514E+03   -0.88522E-03   -0.88311E-03  7488   0.181E-01 0.375E-04
CGA:  14    -0.343928372296E+03   -0.10418E-02   -0.10407E-02  7488   0.197E-01 0.611E-04
CGA:  15    -0.343929100903E+03   -0.72861E-03   -0.72875E-03  7488   0.956E-02 0.932E-05
CGA:  16    -0.343929495171E+03   -0.39427E-03   -0.39424E-03  7488   0.298E-02-0.113E-05
CGA:  17    -0.343929599336E+03   -0.10417E-03   -0.10423E-03  7488   0.313E-02 0.206E-05
CGA:  18    -0.343929737902E+03   -0.13857E-03   -0.13856E-03  7488   0.309E-02 0.340E-05
CGA:  19    -0.343929964550E+03   -0.22665E-03   -0.22649E-03  7488   0.965E-03 0.536E-05
CGA:  20    -0.343929996483E+03   -0.31933E-04   -0.31940E-04  7488   0.524E-03-0.744E-07
CGA:  21    -0.343930022040E+03   -0.25557E-04   -0.25557E-04  7488   0.837E-03-0.120E-06
CGA:  22    -0.343930067601E+03   -0.45561E-04   -0.45549E-04  7488   0.892E-03 0.877E-06
CGA:  23    -0.343930100813E+03   -0.33211E-04   -0.33224E-04  7488   0.366E-03 0.107E-05
CGA:  24    -0.343930114723E+03   -0.13911E-04   -0.13915E-04  7488   0.170E-03 0.347E-06
CGA:  25    -0.343930131387E+03   -0.16664E-04   -0.16712E-04  7488   0.213E-03-0.104E-05
CGA:  26    -0.343930137171E+03   -0.57832E-05   -0.57783E-05  7488   0.167E-03-0.417E-06
CGA:  27    -0.343930148208E+03   -0.11037E-04   -0.11044E-04  7488   0.129E-03-0.462E-06
CGA:  28    -0.343930153413E+03   -0.52050E-05   -0.52045E-05  7488   0.516E-04-0.210E-06
  24 F= -.34393015E+03 E0= -.34391007E+03  d E =-.117868E-01  mag=    20.0000
       N       E                     dE             d eps       ncg     rms          ort
SDA:   1    -0.342731208058E+03    0.11989E+01    0.00000E+00  7488   0.336E+01 0.000E+00
CGA:   2    -0.343136919239E+03   -0.40571E+00   -0.40993E+00  7488   0.150E+02-0.556E-01
CGA:   3    -0.343583517790E+03   -0.44660E+00   -0.45383E+00  7488   0.405E+01-0.610E-01
CGA:   4    -0.343690264471E+03   -0.10675E+00   -0.10476E+00  7488   0.170E+01 0.330E-01
CGA:   5    -0.343786373097E+03   -0.96109E-01   -0.96365E-01  7488   0.191E+01-0.208E-01
CGA:   6    -0.343893397643E+03   -0.10702E+00   -0.10694E+00  7488   0.831E+00 0.652E-02
CGA:   7    -0.343908393014E+03   -0.14995E-01   -0.14783E-01  7488   0.200E+00 0.874E-02
CGA:   8    -0.343919271316E+03   -0.10878E-01   -0.10869E-01  7488   0.200E+00 0.962E-03
CGA:   9    -0.343932681969E+03   -0.13411E-01   -0.13397E-01  7488   0.959E-01 0.575E-03
CGA:  10    -0.343935769598E+03   -0.30876E-02   -0.30796E-02  7488   0.551E-01 0.377E-05
CGA:  11    -0.343937171002E+03   -0.14014E-02   -0.14042E-02  7488   0.256E-01-0.577E-04
CGA:  12    -0.343939457308E+03   -0.22863E-02   -0.22848E-02  7488   0.299E-01 0.340E-04
CGA:  13    -0.343940585741E+03   -0.11284E-02   -0.11288E-02  7488   0.150E-01 0.985E-05
CGA:  14    -0.343941076324E+03   -0.49058E-03   -0.49090E-03  7488   0.634E-02-0.208E-06
CGA:  15    -0.343941314965E+03   -0.23864E-03   -0.23851E-03  7488   0.669E-02-0.318E-05
CGA:  16    -0.343941571022E+03   -0.25606E-03   -0.25612E-03  7488   0.311E-02 0.245E-05
CGA:  17    -0.343941825259E+03   -0.25424E-03   -0.25373E-03  7488   0.302E-02 0.137E-04
CGA:  18    -0.343941998848E+03   -0.17359E-03   -0.17355E-03  7488   0.242E-02 0.378E-05
CGA:  19    -0.343942048961E+03   -0.50113E-04   -0.50190E-04  7488   0.705E-03-0.128E-05
CGA:  20    -0.343942093073E+03   -0.44112E-04   -0.44105E-04  7488   0.108E-02 0.127E-06
CGA:  21    -0.343942201766E+03   -0.10869E-03   -0.10848E-03  7488   0.144E-02 0.419E-05
CGA:  22    -0.343942242953E+03   -0.41187E-04   -0.41234E-04  7488   0.307E-03 0.160E-05
CGA:  23    -0.343942259669E+03   -0.16716E-04   -0.16713E-04  7488   0.458E-03 0.454E-06
CGA:  24    -0.343942282074E+03   -0.22405E-04   -0.22405E-04  7488   0.648E-03-0.168E-06
CGA:  25    -0.343942308568E+03   -0.26494E-04   -0.26491E-04  7488   0.252E-03-0.521E-06
CGA:  26    -0.343942324724E+03   -0.16156E-04   -0.16146E-04  7488   0.114E-03 0.656E-06
CGA:  27    -0.343942332018E+03   -0.72937E-05   -0.72840E-05  7488   0.159E-03 0.609E-06
  25 F= -.34394233E+03 E0= -.34392227E+03  d E =-.121786E-01  mag=    20.0000
       N       E                     dE             d eps       ncg     rms          ort
SDA:   1    -0.343743568657E+03    0.19876E+00    0.00000E+00  7488   0.633E+00 0.000E+00
CGA:   2    -0.343796453679E+03   -0.52885E-01   -0.53033E-01  7488   0.153E+01-0.381E-02
CGA:   3    -0.343870320408E+03   -0.73867E-01   -0.73862E-01  7488   0.794E+00-0.481E-03
CGA:   4    -0.343892891728E+03   -0.22571E-01   -0.22543E-01  7488   0.362E+00 0.374E-03
CGA:   5    -0.343907489828E+03   -0.14598E-01   -0.14584E-01  7488   0.384E+00-0.320E-03
CGA:   6    -0.343927697439E+03   -0.20208E-01   -0.20207E-01  7488   0.148E+00 0.214E-03
CGA:   7    -0.343933556790E+03   -0.58594E-02   -0.58535E-02  7488   0.417E-01-0.137E-03
CGA:   8    -0.343935790592E+03   -0.22338E-02   -0.22332E-02  7488   0.566E-01 0.774E-04
CGA:   9    -0.343937364278E+03   -0.15737E-02   -0.15709E-02  7488   0.192E-01 0.454E-04
CGA:  10    -0.343938457084E+03   -0.10928E-02   -0.10928E-02  7488   0.104E-01 0.274E-05
CGA:  11    -0.343939030760E+03   -0.57368E-03   -0.57363E-03  7488   0.671E-02 0.680E-05
CGA:  12    -0.343939231231E+03   -0.20047E-03   -0.20067E-03  7488   0.412E-02-0.107E-05
CGA:  13    -0.343939383261E+03   -0.15203E-03   -0.15202E-03  7488   0.264E-02 0.540E-06
CGA:  14    -0.343939611877E+03   -0.22862E-03   -0.22855E-03  7488   0.217E-02 0.192E-05
CGA:  15    -0.343939682906E+03   -0.71029E-04   -0.71004E-04  7488   0.854E-03-0.944E-06
CGA:  16    -0.343939706957E+03   -0.24051E-04   -0.24038E-04  7488   0.415E-03-0.868E-06
CGA:  17    -0.343939733898E+03   -0.26941E-04   -0.26950E-04  7488   0.795E-03-0.694E-06
CGA:  18    -0.343939768960E+03   -0.35062E-04   -0.35064E-04  7488   0.303E-03 0.297E-06
CGA:  19    -0.343939781284E+03   -0.12325E-04   -0.12331E-04  7488   0.112E-03 0.702E-06
CGA:  20    -0.343939786867E+03   -0.55824E-05   -0.55826E-05  7488   0.199E-03-0.212E-06
  26 F= -.34393979E+03 E0= -.34391975E+03  d E =0.254515E-02  mag=    20.0000
       N       E                     dE             d eps       ncg     rms          ort
SDA:   1    -0.343731470357E+03    0.20831E+00    0.00000E+00  7488   0.795E+00 0.000E+00
CGA:   2    -0.343763095910E+03   -0.31626E-01   -0.31524E-01  7488   0.133E+01-0.363E-02
CGA:   3    -0.343845355230E+03   -0.82259E-01   -0.82212E-01  7488   0.119E+01 0.235E-02
CGA:   4    -0.343890066059E+03   -0.44711E-01   -0.44773E-01  7488   0.329E+00 0.127E-02
CGA:   5    -0.343906378823E+03   -0.16313E-01   -0.16309E-01  7488   0.299E+00 0.108E-02
CGA:   6    -0.343919237268E+03   -0.12858E-01   -0.12854E-01  7488   0.205E+00-0.312E-03
CGA:   7    -0.343927475225E+03   -0.82380E-02   -0.82216E-02  7488   0.140E+00-0.736E-03
CGA:   8    -0.343930823205E+03   -0.33480E-02   -0.33557E-02  7488   0.404E-01-0.160E-03
CGA:   9    -0.343933050512E+03   -0.22273E-02   -0.22270E-02  7488   0.200E-01 0.287E-04
CGA:  10    -0.343934119385E+03   -0.10689E-02   -0.10687E-02  7488   0.102E-01 0.231E-04
CGA:  11    -0.343934771320E+03   -0.65193E-03   -0.65189E-03  7488   0.132E-01 0.350E-05
CGA:  12    -0.343935195842E+03   -0.42452E-03   -0.42452E-03  7488   0.522E-02 0.468E-05
CGA:  13    -0.343935347859E+03   -0.15202E-03   -0.15212E-03  7488   0.263E-02 0.308E-05
CGA:  14    -0.343935458589E+03   -0.11073E-03   -0.11075E-03  7488   0.226E-02 0.365E-05
CGA:  15    -0.343935643463E+03   -0.18487E-03   -0.18481E-03  7488   0.147E-02 0.176E-05
CGA:  16    -0.343935694898E+03   -0.51434E-04   -0.51433E-04  7488   0.316E-03-0.343E-06
CGA:  17    -0.343935731942E+03   -0.37044E-04   -0.37047E-04  7488   0.860E-03-0.928E-07
CGA:  18    -0.343935766059E+03   -0.34117E-04   -0.34115E-04  7488   0.413E-03-0.421E-06
CGA:  19    -0.343935782192E+03   -0.16133E-04   -0.16128E-04  7488   0.316E-03-0.629E-06
CGA:  20    -0.343935792647E+03   -0.10455E-04   -0.10451E-04  7488   0.216E-03-0.409E-06
CGA:  21    -0.343935804148E+03   -0.11501E-04   -0.11500E-04  7488   0.133E-03 0.848E-07
CGA:  22    -0.343935817001E+03   -0.12853E-04   -0.12845E-04  7488   0.178E-03 0.125E-06
CGA:  23    -0.343935827946E+03   -0.10945E-04   -0.10939E-04  7488   0.147E-03 0.469E-06
CGA:  24    -0.343935833157E+03   -0.52111E-05   -0.52189E-05  7488   0.504E-04 0.458E-06
  27 F= -.34393583E+03 E0= -.34391577E+03  d E =0.395371E-02  mag=    20.0000
       N       E                     dE             d eps       ncg     rms          ort
SDA:   1    -0.343890568591E+03    0.45259E-01    0.00000E+00  7488   0.281E+00 0.000E+00
CGA:   2    -0.343897852565E+03   -0.72840E-02   -0.72086E-02  7488   0.190E+00 0.144E-02
CGA:   3    -0.343909697407E+03   -0.11845E-01   -0.11843E-01  7488   0.319E+00 0.150E-03
CGA:   4    -0.343924782658E+03   -0.15085E-01   -0.15086E-01  7488   0.152E+00 0.129E-03
CGA:   5    -0.343929766524E+03   -0.49839E-02   -0.49904E-02  7488   0.586E-01 0.258E-05
CGA:   6    -0.343932612236E+03   -0.28457E-02   -0.28457E-02  7488   0.369E-01-0.142E-04
CGA:   7    -0.343935549741E+03   -0.29375E-02   -0.29371E-02  7488   0.156E-01 0.156E-04
CGA:   8    -0.343936220094E+03   -0.67035E-03   -0.67080E-03  7488   0.518E-02 0.212E-04
CGA:   9    -0.343936455090E+03   -0.23500E-03   -0.23500E-03  7488   0.676E-02 0.873E-06
CGA:  10    -0.343936699167E+03   -0.24408E-03   -0.24420E-03  7488   0.313E-02 0.822E-06
CGA:  11    -0.343936809574E+03   -0.11041E-03   -0.11041E-03  7488   0.165E-02 0.344E-06
CGA:  12    -0.343936895423E+03   -0.85849E-04   -0.85850E-04  7488   0.117E-02-0.119E-06
CGA:  13    -0.343936936902E+03   -0.41479E-04   -0.41490E-04  7488   0.338E-03 0.748E-06
CGA:  14    -0.343936971232E+03   -0.34329E-04   -0.34208E-04  7488   0.587E-03 0.234E-05
CGA:  15    -0.343936988930E+03   -0.17698E-04   -0.17707E-04  7488   0.366E-03 0.687E-06
CGA:  16    -0.343937000401E+03   -0.11471E-04   -0.11467E-04  7488   0.559E-04-0.187E-06
CGA:  17    -0.343937005062E+03   -0.46606E-05   -0.46565E-05  7488   0.104E-03 0.109E-06
  28 F= -.34393701E+03 E0= -.34391693E+03  d E =-.117190E-02  mag=    20.0000
       N       E                     dE             d eps       ncg     rms          ort
SDA:   1    -0.343821136646E+03    0.11586E+00    0.00000E+00  7488   0.859E+00 0.000E+00
CGA:   2    -0.343838592979E+03   -0.17456E-01   -0.17832E-01  7488   0.413E+00-0.120E-01
CGA:   3    -0.343873999942E+03   -0.35407E-01   -0.35374E-01  7488   0.960E+00 0.835E-03
CGA:   4    -0.343910308614E+03   -0.36309E-01   -0.36310E-01  7488   0.404E+00 0.119E-03
CGA:   5    -0.343925356435E+03   -0.15048E-01   -0.14964E-01  7488   0.896E-01-0.829E-03
CGA:   6    -0.343931250741E+03   -0.58943E-02   -0.58951E-02  7488   0.816E-01-0.235E-04
CGA:   7    -0.343936256910E+03   -0.50062E-02   -0.50054E-02  7488   0.893E-01 0.546E-04
CGA:   8    -0.343938113533E+03   -0.18566E-02   -0.18682E-02  7488   0.114E-01-0.369E-03
CGA:   9    -0.343938521217E+03   -0.40768E-03   -0.40747E-03  7488   0.934E-02-0.277E-05
CGA:  10    -0.343939167322E+03   -0.64611E-03   -0.64641E-03  7488   0.882E-02-0.110E-04
CGA:  11    -0.343939534373E+03   -0.36705E-03   -0.36719E-03  7488   0.250E-02 0.656E-05
CGA:  12    -0.343939614057E+03   -0.79684E-04   -0.79733E-04  7488   0.169E-02-0.108E-06
CGA:  13    -0.343939681646E+03   -0.67589E-04   -0.67581E-04  7488   0.173E-02-0.549E-06
CGA:  14    -0.343939801942E+03   -0.12030E-03   -0.12038E-03  7488   0.680E-03-0.379E-05
CGA:  15    -0.343939822486E+03   -0.20543E-04   -0.20537E-04  7488   0.302E-03-0.596E-06
CGA:  16    -0.343939837016E+03   -0.14531E-04   -0.14531E-04  7488   0.239E-03 0.541E-08
CGA:  17    -0.343939847972E+03   -0.10956E-04   -0.10957E-04  7488   0.359E-03 0.240E-06
CGA:  18    -0.343939865277E+03   -0.17305E-04   -0.17305E-04  7488   0.120E-03 0.605E-06
CGA:  19    -0.343939870336E+03   -0.50592E-05   -0.50594E-05  7488   0.728E-04-0.411E-07
  29 F= -.34393987E+03 E0= -.34391981E+03  d E =-.286527E-02  mag=    20.0000
       N       E                     dE             d eps       ncg     rms          ort
SDA:   1    -0.343607154149E+03    0.33271E+00    0.00000E+00  7488   0.150E+01 0.000E+00
CGA:   2    -0.343647708607E+03   -0.40554E-01   -0.41439E-01  7488   0.154E+01-0.108E-01
CGA:   3    -0.343816841186E+03   -0.16913E+00   -0.16967E+00  7488   0.233E+01-0.964E-02
CGA:   4    -0.343883038569E+03   -0.66197E-01   -0.65667E-01  7488   0.536E+00 0.743E-02
CGA:   5    -0.343902933731E+03   -0.19895E-01   -0.19794E-01  7488   0.282E+00-0.131E-02
CGA:   6    -0.343925641860E+03   -0.22708E-01   -0.22676E-01  7488   0.413E+00 0.915E-03
CGA:   7    -0.343935270988E+03   -0.96291E-02   -0.95397E-02  7488   0.101E+00 0.224E-02
CGA:   8    -0.343938635704E+03   -0.33647E-02   -0.33658E-02  7488   0.327E-01-0.773E-06
CGA:   9    -0.343940839089E+03   -0.22034E-02   -0.22047E-02  7488   0.299E-01-0.526E-04
CGA:  10    -0.343942337315E+03   -0.14982E-02   -0.14981E-02  7488   0.293E-01 0.713E-04
CGA:  11    -0.343943058995E+03   -0.72168E-03   -0.72142E-03  7488   0.833E-02 0.602E-05
CGA:  12    -0.343943507355E+03   -0.44836E-03   -0.44832E-03  7488   0.527E-02 0.360E-05
CGA:  13    -0.343943767247E+03   -0.25989E-03   -0.25989E-03  7488   0.409E-02-0.213E-05
CGA:  14    -0.343943909979E+03   -0.14273E-03   -0.14277E-03  7488   0.284E-02-0.208E-05
CGA:  15    -0.343944062458E+03   -0.15248E-03   -0.15250E-03  7488   0.279E-02-0.357E-05
CGA:  16    -0.343944132164E+03   -0.69706E-04   -0.69750E-04  7488   0.469E-03-0.119E-05
CGA:  17    -0.343944162938E+03   -0.30773E-04   -0.30738E-04  7488   0.494E-03 0.143E-05
CGA:  18    -0.343944198265E+03   -0.35327E-04   -0.35305E-04  7488   0.108E-02 0.540E-06
CGA:  19    -0.343944229772E+03   -0.31507E-04   -0.31493E-04  7488   0.159E-03 0.801E-07
CGA:  20    -0.343944236873E+03   -0.71012E-05   -0.71016E-05  7488   0.125E-03-0.205E-06
CGA:  21    -0.343944247511E+03   -0.10638E-04   -0.10600E-04  7488   0.270E-03 0.678E-06
CGA:  22    -0.343944256390E+03   -0.88787E-05   -0.88937E-05  7488   0.129E-03 0.515E-06
  30 F= -.34394426E+03 E0= -.34392421E+03  d E =-.438605E-02  mag=    20.0000
       N       E                     dE             d eps       ncg     rms          ort
SDA:   1    -0.343531901309E+03    0.41235E+00    0.00000E+00  7488   0.245E+01 0.000E+00
CGA:   2    -0.343585909930E+03   -0.54009E-01   -0.51150E-01  7488   0.143E+01 0.811E-01
CGA:   3    -0.343760636548E+03   -0.17473E+00   -0.17499E+00  7488   0.309E+01-0.454E-02
CGA:   4    -0.343853021389E+03   -0.92385E-01   -0.91810E-01  7488   0.787E+00 0.538E-02
CGA:   5    -0.343884890753E+03   -0.31869E-01   -0.31919E-01  7488   0.529E+00 0.164E-02
CGA:   6    -0.343910447343E+03   -0.25557E-01   -0.25558E-01  7488   0.574E+00 0.779E-03
CGA:   7    -0.343926113028E+03   -0.15666E-01   -0.15552E-01  7488   0.207E+00 0.158E-02
CGA:   8    -0.343935539960E+03   -0.94269E-02   -0.94207E-02  7488   0.844E-01-0.998E-03
CGA:   9    -0.343939826362E+03   -0.42864E-02   -0.42838E-02  7488   0.451E-01 0.462E-03
CGA:  10    -0.343941264560E+03   -0.14382E-02   -0.14372E-02  7488   0.378E-01 0.890E-05
CGA:  11    -0.343942691812E+03   -0.14273E-02   -0.14285E-02  7488   0.196E-01 0.364E-04
CGA:  12    -0.343943988960E+03   -0.12971E-02   -0.12977E-02  7488   0.142E-01-0.211E-04
CGA:  13    -0.343944383204E+03   -0.39424E-03   -0.39437E-03  7488   0.432E-02-0.334E-05
CGA:  14    -0.343944625369E+03   -0.24216E-03   -0.24211E-03  7488   0.452E-02 0.364E-05
CGA:  15    -0.343944835673E+03   -0.21030E-03   -0.21030E-03  7488   0.624E-02-0.231E-05
CGA:  16    -0.343945040280E+03   -0.20461E-03   -0.20465E-03  7488   0.107E-02-0.169E-05
CGA:  17    -0.343945085771E+03   -0.45491E-04   -0.45487E-04  7488   0.578E-03-0.170E-05
CGA:  18    -0.343945150869E+03   -0.65098E-04   -0.65151E-04  7488   0.853E-03-0.998E-06
CGA:  19    -0.343945175222E+03   -0.24353E-04   -0.24374E-04  7488   0.530E-03-0.219E-06
CGA:  20    -0.343945195879E+03   -0.20656E-04   -0.20666E-04  7488   0.312E-03 0.621E-06
CGA:  21    -0.343945211058E+03   -0.15179E-04   -0.15179E-04  7488   0.184E-03 0.485E-06
CGA:  22    -0.343945217539E+03   -0.64810E-05   -0.64834E-05  7488   0.115E-03 0.164E-07
CGA:  23    -0.343945231530E+03   -0.13991E-04   -0.13928E-04  7488   0.154E-03 0.695E-06
CGA:  24    -0.343945238113E+03   -0.65835E-05   -0.65915E-05  7488   0.106E-03 0.779E-06
  31 F= -.34394524E+03 E0= -.34392523E+03  d E =-.981723E-03  mag=    20.0000
       N       E                     dE             d eps       ncg     rms          ort
SDA:   1    -0.343037460928E+03    0.90777E+00    0.00000E+00  7488   0.130E+02 0.000E+00
CGA:   2    -0.343211139623E+03   -0.17368E+00   -0.22133E+00  7488   0.365E+01-0.217E+01
CGA:   3    -0.343494285804E+03   -0.28315E+00   -0.28842E+00  7488   0.766E+01-0.114E+00
CGA:   4    -0.343716129184E+03   -0.22184E+00   -0.22698E+00  7488   0.204E+01-0.364E-01
CGA:   5    -0.343777744122E+03   -0.61615E-01   -0.60035E-01  7488   0.106E+01 0.114E-01
CGA:   6    -0.343841793669E+03   -0.64050E-01   -0.63652E-01  7488   0.135E+01 0.238E-01
CGA:   7    -0.343892543903E+03   -0.50750E-01   -0.50333E-01  7488   0.644E+00-0.556E-02
CGA:   8    -0.343913783964E+03   -0.21240E-01   -0.21303E-01  7488   0.243E+00 0.259E-03
CGA:   9    -0.343921069364E+03   -0.72854E-02   -0.72322E-02  7488   0.114E+00 0.257E-03
CGA:  10    -0.343926739666E+03   -0.56703E-02   -0.56665E-02  7488   0.104E+00 0.691E-03
CGA:  11    -0.343930520349E+03   -0.37807E-02   -0.37749E-02  7488   0.588E-01-0.991E-04
CGA:  12    -0.343932828898E+03   -0.23085E-02   -0.23105E-02  7488   0.355E-01 0.105E-03
CGA:  13    -0.343934156034E+03   -0.13271E-02   -0.13261E-02  7488   0.206E-01-0.302E-04
CGA:  14    -0.343934884663E+03   -0.72863E-03   -0.72955E-03  7488   0.106E-01 0.201E-04
CGA:  15    -0.343935347542E+03   -0.46288E-03   -0.46285E-03  7488   0.107E-01-0.135E-04
CGA:  16    -0.343935898054E+03   -0.55051E-03   -0.55031E-03  7488   0.909E-02 0.190E-04
CGA:  17    -0.343936197392E+03   -0.29934E-03   -0.29925E-03  7488   0.328E-02-0.294E-05
CGA:  18    -0.343936304600E+03   -0.10721E-03   -0.10726E-03  7488   0.216E-02-0.111E-05
CGA:  19    -0.343936467003E+03   -0.16240E-03   -0.16256E-03  7488   0.441E-02-0.479E-05
CGA:  20    -0.343936660020E+03   -0.19302E-03   -0.19304E-03  7488   0.233E-02 0.531E-05
CGA:  21    -0.343936729419E+03   -0.69399E-04   -0.69407E-04  7488   0.952E-03 0.107E-05
CGA:  22    -0.343936779876E+03   -0.50457E-04   -0.50434E-04  7488   0.142E-02 0.220E-05
CGA:  23    -0.343936865708E+03   -0.85831E-04   -0.85801E-04  7488   0.154E-02 0.215E-05
CGA:  24    -0.343936923634E+03   -0.57927E-04   -0.57961E-04  7488   0.858E-03 0.247E-05
CGA:  25    -0.343936953235E+03   -0.29600E-04   -0.29615E-04  7488   0.409E-03 0.157E-05
CGA:  26    -0.343936972110E+03   -0.18876E-04   -0.18873E-04  7488   0.457E-03 0.167E-05
CGA:  27    -0.343936996173E+03   -0.24063E-04   -0.24044E-04  7488   0.423E-03 0.244E-05
CGA:  28    -0.343937012430E+03   -0.16256E-04   -0.16269E-04  7488   0.239E-03 0.149E-05
CGA:  29    -0.343937021735E+03   -0.93058E-05   -0.93105E-05  7488   0.170E-03 0.751E-06
  32 F= -.34393702E+03 E0= -.34391689E+03  d E =0.821638E-02  mag=    20.0000
       N       E                     dE             d eps       ncg     rms          ort
SDA:   1    -0.343695764561E+03    0.24125E+00    0.00000E+00  7488   0.348E+01 0.000E+00
CGA:   2    -0.343745739810E+03   -0.49975E-01   -0.54661E-01  7488   0.769E+00-0.226E+00
CGA:   3    -0.343818046798E+03   -0.72307E-01   -0.72495E-01  7488   0.149E+01-0.347E-02
CGA:   4    -0.343869388119E+03   -0.51341E-01   -0.51521E-01  7488   0.722E+00 0.299E-02
CGA:   5    -0.343892449816E+03   -0.23062E-01   -0.22959E-01  7488   0.325E+00-0.581E-03
[...]
CGA:  11    -0.343946773658E+03   -0.85483E-02   -0.85345E-02  7488   0.166E+00-0.216E-03
CGA:  12    -0.343953232462E+03   -0.64588E-02   -0.64528E-02  7488   0.567E-01-0.268E-03
CGA:  13    -0.343954793962E+03   -0.15615E-02   -0.15687E-02  7488   0.460E-01-0.533E-04
CGA:  14    -0.343956430815E+03   -0.16369E-02   -0.16381E-02  7488   0.212E-01 0.332E-04
CGA:  15    -0.343957771003E+03   -0.13402E-02   -0.13419E-02  7488   0.276E-01-0.709E-04
CGA:  16    -0.343958503312E+03   -0.73231E-03   -0.73376E-03  7488   0.203E-01-0.174E-04
CGA:  17    -0.343959555728E+03   -0.10524E-02   -0.10528E-02  7488   0.911E-02-0.340E-04
CGA:  18    -0.343959834088E+03   -0.27836E-03   -0.27866E-03  7488   0.553E-02 0.518E-05
CGA:  19    -0.343959969207E+03   -0.13512E-03   -0.13552E-03  7488   0.266E-02-0.137E-06
CGA:  20    -0.343960247215E+03   -0.27801E-03   -0.27676E-03  7488   0.505E-02 0.198E-04
CGA:  21    -0.343960412674E+03   -0.16546E-03   -0.16553E-03  7488   0.331E-02 0.682E-05
CGA:  22    -0.343960484267E+03   -0.71593E-04   -0.71674E-04  7488   0.406E-03-0.640E-08
CGA:  23    -0.343960524337E+03   -0.40070E-04   -0.40102E-04  7488   0.133E-02-0.911E-06
CGA:  24    -0.343960570385E+03   -0.46048E-04   -0.46044E-04  7488   0.100E-02-0.526E-06
CGA:  25    -0.343960604797E+03   -0.34411E-04   -0.34417E-04  7488   0.289E-03 0.808E-07
CGA:  26    -0.343960618570E+03   -0.13774E-04   -0.13773E-04  7488   0.308E-03-0.616E-07
CGA:  27    -0.343960627292E+03   -0.87214E-05   -0.87321E-05  7488   0.174E-03 0.373E-06
  49 F= -.34396063E+03 E0= -.34394073E+03  d E =-.406529E-01  mag=    20.0000
       N       E                     dE             d eps       ncg     rms          ort
SDA:   1    -0.343682061076E+03    0.27856E+00    0.00000E+00  7488   0.287E+01 0.000E+00
CGA:   2    -0.343739162632E+03   -0.57102E-01   -0.56046E-01  7488   0.998E+00 0.330E-01
CGA:   3    -0.343809101833E+03   -0.69939E-01   -0.69704E-01  7488   0.184E+01 0.810E-02
CGA:   4    -0.343883313882E+03   -0.74212E-01   -0.74202E-01  7488   0.875E+00-0.511E-03
CGA:   5    -0.343915624215E+03   -0.32310E-01   -0.32241E-01  7488   0.294E+00-0.249E-02
CGA:   6    -0.343947615827E+03   -0.31992E-01   -0.32246E-01  7488   0.400E+00-0.428E-02
CGA:   7    -0.343960794790E+03   -0.13179E-01   -0.13270E-01  7488   0.195E+00 0.472E-03
CGA:   8    -0.343964983894E+03   -0.41891E-02   -0.41921E-02  7488   0.356E-01-0.821E-04
CGA:   9    -0.343968251949E+03   -0.32681E-02   -0.32708E-02  7488   0.443E-01-0.533E-04
CGA:  10    -0.343970050657E+03   -0.17987E-02   -0.17987E-02  7488   0.193E-01-0.276E-05
CGA:  11    -0.343970560640E+03   -0.50998E-03   -0.51177E-03  7488   0.100E-01-0.300E-04
CGA:  12    -0.343971020479E+03   -0.45984E-03   -0.45983E-03  7488   0.571E-02-0.868E-05
CGA:  13    -0.343971349713E+03   -0.32923E-03   -0.32929E-03  7488   0.519E-02-0.446E-05
CGA:  14    -0.343971560887E+03   -0.21117E-03   -0.21115E-03  7488   0.408E-02-0.482E-05
CGA:  15    -0.343971738893E+03   -0.17801E-03   -0.17801E-03  7488   0.228E-02-0.153E-05
CGA:  16    -0.343971798746E+03   -0.59853E-04   -0.59840E-04  7488   0.899E-03 0.267E-07
CGA:  17    -0.343971844612E+03   -0.45866E-04   -0.45849E-04  7488   0.636E-03 0.275E-05
CGA:  18    -0.343971907707E+03   -0.63095E-04   -0.62983E-04  7488   0.107E-02 0.199E-05
CGA:  19    -0.343971933085E+03   -0.25378E-04   -0.25410E-04  7488   0.253E-03-0.627E-07
CGA:  20    -0.343971941018E+03   -0.79331E-05   -0.79392E-05  7488   0.113E-03 0.209E-06
CGA:  21    -0.343971960895E+03   -0.19877E-04   -0.19574E-04  7488   0.264E-03 0.235E-05
CGA:  22    -0.343971967047E+03   -0.61528E-05   -0.61691E-05  7488   0.932E-04 0.454E-06
  50 F= -.34397197E+03 E0= -.34395215E+03  d E =-.113398E-01  mag=    20.0000
       N       E                     dE             d eps       ncg     rms          ort
SDA:   1    -0.343727808679E+03    0.24415E+00    0.00000E+00  7488   0.837E+00 0.000E+00
CGA:   2    -0.343807875784E+03   -0.80067E-01   -0.79988E-01  7488   0.163E+01 0.194E-02
CGA:   3    -0.343889731021E+03   -0.81855E-01   -0.81843E-01  7488   0.902E+00-0.140E-02
CGA:   4    -0.343912094255E+03   -0.22363E-01   -0.21977E-01  7488   0.440E+00 0.891E-02
CGA:   5    -0.343941559321E+03   -0.29465E-01   -0.29401E-01  7488   0.515E+00 0.319E-02
CGA:   6    -0.343960462792E+03   -0.18903E-01   -0.18917E-01  7488   0.175E+00 0.684E-04
CGA:   7    -0.343967170558E+03   -0.67078E-02   -0.67222E-02  7488   0.811E-01 0.167E-03
CGA:   8    -0.343972087527E+03   -0.49170E-02   -0.49253E-02  7488   0.316E-01-0.565E-03
CGA:   9    -0.343973400266E+03   -0.13127E-02   -0.13129E-02  7488   0.323E-01-0.405E-06
CGA:  10    -0.343974499246E+03   -0.10990E-02   -0.10964E-02  7488   0.196E-01-0.885E-05
CGA:  11    -0.343975456686E+03   -0.95744E-03   -0.95751E-03  7488   0.581E-02 0.200E-04
CGA:  12    -0.343975695225E+03   -0.23854E-03   -0.23856E-03  7488   0.355E-02 0.796E-06
CGA:  13    -0.343975951652E+03   -0.25643E-03   -0.25655E-03  7488   0.617E-02-0.517E-05
CGA:  14    -0.343976184455E+03   -0.23280E-03   -0.23277E-03  7488   0.206E-02-0.662E-05
CGA:  15    -0.343976236331E+03   -0.51876E-04   -0.51885E-04  7488   0.944E-03-0.251E-05
CGA:  16    -0.343976282082E+03   -0.45751E-04   -0.45751E-04  7488   0.617E-03-0.779E-06
CGA:  17    -0.343976341054E+03   -0.58972E-04   -0.58977E-04  7488   0.499E-03-0.190E-06
CGA:  18    -0.343976361368E+03   -0.20314E-04   -0.20313E-04  7488   0.384E-03-0.369E-08
CGA:  19    -0.343976373347E+03   -0.11979E-04   -0.11983E-04  7488   0.224E-03 0.721E-07
CGA:  20    -0.343976384417E+03   -0.11070E-04   -0.11070E-04  7488   0.117E-03 0.397E-06
CGA:  21    -0.343976389685E+03   -0.52673E-05   -0.52697E-05  7488   0.126E-03 0.470E-06
CGA:  22    -0.343976400875E+03   -0.11190E-04   -0.11131E-04  7488   0.132E-03 0.151E-05
CGA:  23    -0.343976405010E+03   -0.41348E-05   -0.41465E-05  7488   0.514E-04 0.490E-06
  51 F= -.34397641E+03 E0= -.34395662E+03  d E =-.443796E-02  mag=    20.0000
       N       E                     dE             d eps       ncg     rms          ort
SDA:   1    -0.343909153525E+03    0.67247E-01    0.00000E+00  7488   0.282E+00 0.000E+00
CGA:   2    -0.343920407274E+03   -0.11254E-01   -0.11261E-01  7488   0.354E+00 0.306E-03
CGA:   3    -0.343942199931E+03   -0.21793E-01   -0.21717E-01  7488   0.538E+00 0.427E-02
CGA:   4    -0.343960368367E+03   -0.18168E-01   -0.18086E-01  7488   0.889E-01-0.372E-04
CGA:   5    -0.343965670931E+03   -0.53026E-02   -0.53038E-02  7488   0.127E+00-0.561E-04
CGA:   6    -0.343971439261E+03   -0.57683E-02   -0.57679E-02  7488   0.435E-01-0.490E-04
CGA:   7    -0.343973500441E+03   -0.20612E-02   -0.20616E-02  7488   0.233E-01 0.995E-04
CGA:   8    -0.343974219332E+03   -0.71889E-03   -0.71738E-03  7488   0.160E-01 0.528E-05
CGA:   9    -0.343974785187E+03   -0.56586E-03   -0.56604E-03  7488   0.590E-02-0.850E-06
CGA:  10    -0.343975143228E+03   -0.35804E-03   -0.35820E-03  7488   0.362E-02-0.107E-04
CGA:  11    -0.343975366039E+03   -0.22281E-03   -0.22282E-03  7488   0.338E-02-0.195E-05
CGA:  12    -0.343975462009E+03   -0.95970E-04   -0.95904E-04  7488   0.116E-02-0.927E-06
CGA:  13    -0.343975501123E+03   -0.39115E-04   -0.39105E-04  7488   0.843E-03-0.752E-06
CGA:  14    -0.343975555054E+03   -0.53930E-04   -0.53988E-04  7488   0.117E-02-0.358E-05
CGA:  15    -0.343975602578E+03   -0.47524E-04   -0.47492E-04  7488   0.192E-03-0.455E-05
CGA:  16    -0.343975611275E+03   -0.86973E-05   -0.86953E-05  7488   0.158E-03-0.872E-06
  52 F= -.34397561E+03 E0= -.34395580E+03  d E =0.793735E-03  mag=    20.0000
       N       E                     dE             d eps       ncg     rms          ort
SDA:   1    -0.343871501251E+03    0.10410E+00    0.00000E+00  7488   0.321E+01 0.000E+00
CGA:   2    -0.343912317651E+03   -0.40816E-01   -0.45508E-01  7488   0.241E+00-0.265E+00
CGA:   3    -0.343926471564E+03   -0.14154E-01   -0.14252E-01  7488   0.441E+00-0.417E-02
CGA:   4    -0.343949084606E+03   -0.22613E-01   -0.22583E-01  7488   0.396E+00 0.356E-02
CGA:   5    -0.343961866063E+03   -0.12781E-01   -0.12782E-01  7488   0.968E-01 0.676E-04
CGA:   6    -0.343965071333E+03   -0.32053E-02   -0.32148E-02  7488   0.702E-01 0.809E-04
CGA:   7    -0.343969201227E+03   -0.41299E-02   -0.41365E-02  7488   0.705E-01-0.363E-03
CGA:   8    -0.343971629831E+03   -0.24286E-02   -0.24328E-02  7488   0.246E-01 0.463E-04
CGA:   9    -0.343972314153E+03   -0.68432E-03   -0.68328E-03  7488   0.942E-02 0.406E-05
CGA:  10    -0.343972825809E+03   -0.51166E-03   -0.51158E-03  7488   0.893E-02 0.564E-05
CGA:  11    -0.343973121144E+03   -0.29533E-03   -0.29508E-03  7488   0.403E-02-0.344E-05
CGA:  12    -0.343973292385E+03   -0.17124E-03   -0.17125E-03  7488   0.314E-02 0.832E-06
CGA:  13    -0.343973438610E+03   -0.14622E-03   -0.14624E-03  7488   0.201E-02-0.548E-05
CGA:  14    -0.343973494816E+03   -0.56206E-04   -0.56206E-04  7488   0.647E-03-0.166E-05
CGA:  15    -0.343973531730E+03   -0.36914E-04   -0.36938E-04  7488   0.973E-03-0.165E-05
CGA:  16    -0.343973579141E+03   -0.47412E-04   -0.47422E-04  7488   0.639E-03-0.291E-05
CGA:  17    -0.343973598142E+03   -0.19000E-04   -0.18966E-04  7488   0.160E-03-0.198E-05
CGA:  18    -0.343973603903E+03   -0.57614E-05   -0.57565E-05  7488   0.152E-03-0.661E-06
CGA:  19    -0.343973617129E+03   -0.13226E-04   -0.13265E-04  7488   0.242E-03-0.896E-06
CGA:  20    -0.343973625056E+03   -0.79268E-05   -0.79225E-05  7488   0.101E-03-0.444E-06
  53 F= -.34397363E+03 E0= -.34395378E+03  d E =0.198622E-02  mag=    20.0000
       N       E                     dE             d eps       ncg     rms          ort
SDA:   1    -0.343925345860E+03    0.48271E-01    0.00000E+00  7488   0.334E+00 0.000E+00
CGA:   2    -0.343931521140E+03   -0.61753E-02   -0.60598E-02  7488   0.142E+00 0.418E-02
CGA:   3    -0.343953630114E+03   -0.22109E-01   -0.22138E-01  7488   0.314E+00-0.324E-03
CGA:   4    -0.343963221233E+03   -0.95911E-02   -0.95853E-02  7488   0.643E-01 0.615E-04
CGA:   5    -0.343965630683E+03   -0.24094E-02   -0.24090E-02  7488   0.454E-01-0.769E-05
CGA:   6    -0.343968386786E+03   -0.27561E-02   -0.27563E-02  7488   0.545E-01-0.174E-04
CGA:   7    -0.343969921367E+03   -0.15346E-02   -0.15309E-02  7488   0.235E-01 0.250E-04
CGA:   8    -0.343970673989E+03   -0.75262E-03   -0.75249E-03  7488   0.314E-02-0.598E-05
CGA:   9    -0.343970980806E+03   -0.30682E-03   -0.30666E-03  7488   0.454E-02 0.296E-05
CGA:  10    -0.343971220189E+03   -0.23938E-03   -0.23937E-03  7488   0.273E-02 0.386E-05
CGA:  11    -0.343971280605E+03   -0.60415E-04   -0.60493E-04  7488   0.765E-03-0.868E-07
CGA:  12    -0.343971314193E+03   -0.33588E-04   -0.33588E-04  7488   0.801E-03-0.276E-06
CGA:  13    -0.343971364137E+03   -0.49944E-04   -0.49982E-04  7488   0.850E-03-0.256E-05
CGA:  14    -0.343971397025E+03   -0.32888E-04   -0.32862E-04  7488   0.125E-03-0.251E-05
CGA:  15    -0.343971403453E+03   -0.64290E-05   -0.64304E-05  7488   0.120E-03-0.388E-06
CGA:  16    -0.343971419296E+03   -0.15842E-04   -0.15854E-04  7488   0.102E-03-0.169E-06
CGA:  17    -0.343971423185E+03   -0.38896E-05   -0.38887E-05  7488   0.593E-04-0.790E-07
  54 F= -.34397142E+03 E0= -.34395155E+03  d E =0.220187E-02  mag=    20.0000
       N       E                     dE             d eps       ncg     rms          ort
SDA:   1    -0.343728767459E+03    0.24265E+00    0.00000E+00  7488   0.110E+01 0.000E+00
CGA:   2    -0.343757368232E+03   -0.28601E-01   -0.29471E-01  7488   0.112E+01-0.148E-01
CGA:   3    -0.343879524667E+03   -0.12216E+00   -0.12266E+00  7488   0.121E+01-0.873E-02
CGA:   4    -0.343926211922E+03   -0.46687E-01   -0.46933E-01  7488   0.235E+00 0.257E-02
CGA:   5    -0.343940713692E+03   -0.14502E-01   -0.14492E-01  7488   0.278E+00 0.729E-03
CGA:   6    -0.343952094941E+03   -0.11381E-01   -0.11402E-01  7488   0.258E+00 0.372E-03
CGA:   7    -0.343960378558E+03   -0.82836E-02   -0.82200E-02  7488   0.666E-01 0.403E-03
CGA:   8    -0.343962404500E+03   -0.20259E-02   -0.20238E-02  7488   0.187E-01 0.166E-04
CGA:   9    -0.343963326469E+03   -0.92197E-03   -0.92197E-03  7488   0.228E-01 0.920E-05
CGA:  10    -0.343964965717E+03   -0.16392E-02   -0.16387E-02  7488   0.112E-01 0.278E-04
CGA:  11    -0.343965219121E+03   -0.25340E-03   -0.25310E-03  7488   0.422E-02 0.152E-04
CGA:  12    -0.343965388450E+03   -0.16933E-03   -0.16940E-03  7488   0.305E-02 0.155E-05
CGA:  13    -0.343965696742E+03   -0.30829E-03   -0.30861E-03  7488   0.161E-02-0.653E-05
CGA:  14    -0.343965751099E+03   -0.54357E-04   -0.54382E-04  7488   0.135E-02-0.917E-06
CGA:  15    -0.343965805688E+03   -0.54589E-04   -0.54586E-04  7488   0.753E-03-0.566E-06
CGA:  16    -0.343965833872E+03   -0.28184E-04   -0.28187E-04  7488   0.492E-03-0.164E-06
CGA:  17    -0.343965864652E+03   -0.30780E-04   -0.30783E-04  7488   0.627E-03-0.270E-06
CGA:  18    -0.343965898514E+03   -0.33861E-04   -0.33862E-04  7488   0.368E-03-0.463E-06
CGA:  19    -0.343965910875E+03   -0.12361E-04   -0.12362E-04  7488   0.245E-03-0.370E-07
CGA:  20    -0.343965918919E+03   -0.80445E-05   -0.80516E-05  7488   0.134E-03 0.175E-06
CGA:  21    -0.343965934059E+03   -0.15140E-04   -0.15093E-04  7488   0.281E-03 0.605E-06
CGA:  22    -0.343965949002E+03   -0.14942E-04   -0.14942E-04  7488   0.138E-03 0.128E-06
CGA:  23    -0.343965951950E+03   -0.29480E-05   -0.29490E-05  7488   0.467E-04 0.277E-07
  55 F= -.34396595E+03 E0= -.34394600E+03  d E =0.547124E-02  mag=    20.0000
       N       E                     dE             d eps       ncg     rms          ort
SDA:   1    -0.343856962471E+03    0.10899E+00    0.00000E+00  7488   0.154E+01 0.000E+00
CGA:   2    -0.343881600707E+03   -0.24638E-01   -0.25250E-01  7488   0.296E+00-0.294E-01
CGA:   3    -0.343901798576E+03   -0.20198E-01   -0.20242E-01  7488   0.712E+00-0.179E-02
CGA:   4    -0.343938672138E+03   -0.36874E-01   -0.36874E-01  7488   0.318E+00-0.698E-03
CGA:   5    -0.343949402718E+03   -0.10731E-01   -0.10757E-01  7488   0.729E-01-0.644E-04
CGA:   6    -0.343954920444E+03   -0.55177E-02   -0.55080E-02  7488   0.126E+00 0.331E-03
CGA:   7    -0.343959641300E+03   -0.47209E-02   -0.47081E-02  7488   0.716E-01-0.823E-04
CGA:   8    -0.343961308181E+03   -0.16669E-02   -0.16683E-02  7488   0.102E-01-0.327E-04
CGA:   9    -0.343961858360E+03   -0.55018E-03   -0.55018E-03  7488   0.116E-01 0.334E-05
CGA:  10    -0.343962432420E+03   -0.57406E-03   -0.57408E-03  7488   0.667E-02 0.175E-04
CGA:  11    -0.343962707624E+03   -0.27520E-03   -0.27530E-03  7488   0.328E-02 0.119E-04
CGA:  12    -0.343962816570E+03   -0.10895E-03   -0.10912E-03  7488   0.282E-02 0.431E-05
CGA:  13    -0.343962933712E+03   -0.11714E-03   -0.11717E-03  7488   0.101E-02 0.403E-05
CGA:  14    -0.343962991810E+03   -0.58098E-04   -0.58079E-04  7488   0.993E-03 0.232E-05
CGA:  15    -0.343963048679E+03   -0.56870E-04   -0.56839E-04  7488   0.890E-03 0.376E-05
CGA:  16    -0.343963074208E+03   -0.25529E-04   -0.25576E-04  7488   0.251E-03 0.141E-05
CGA:  17    -0.343963082236E+03   -0.80280E-05   -0.80339E-05  7488   0.210E-03 0.307E-06
CGA:  18    -0.343963098520E+03   -0.16283E-04   -0.16276E-04  7488   0.276E-03 0.140E-06
CGA:  19    -0.343963114279E+03   -0.15760E-04   -0.15759E-04  7488   0.143E-03 0.747E-07
CGA:  20    -0.343963119045E+03   -0.47655E-05   -0.47657E-05  7488   0.803E-04-0.945E-07
  56 F= -.34396312E+03 E0= -.34394313E+03  d E =0.283290E-02  mag=    20.0000
       N       E                     dE             d eps       ncg     rms          ort
SDA:   1    -0.343914015580E+03    0.49099E-01    0.00000E+00  7488   0.499E+00 0.000E+00
CGA:   2    -0.343922597722E+03   -0.85821E-02   -0.83244E-02  7488   0.135E+00 0.112E-01
CGA:   3    -0.343935169354E+03   -0.12572E-01   -0.12527E-01  7488   0.330E+00 0.101E-02
CGA:   4    -0.343951644058E+03   -0.16475E-01   -0.16475E-01  7488   0.147E+00-0.410E-03
CGA:   5    -0.343955749201E+03   -0.41051E-02   -0.40970E-02  7488   0.388E-01 0.113E-03
CGA:   6    -0.343957825620E+03   -0.20764E-02   -0.20761E-02  7488   0.585E-01 0.479E-04
CGA:   7    -0.343959903426E+03   -0.20778E-02   -0.20764E-02  7488   0.362E-01-0.296E-05
CGA:   8    -0.343961210533E+03   -0.13071E-02   -0.13080E-02  7488   0.641E-02 0.299E-04
CGA:   9    -0.343961512798E+03   -0.30226E-03   -0.30226E-03  7488   0.322E-02 0.305E-05
CGA:  10    -0.343961779677E+03   -0.26688E-03   -0.26657E-03  7488   0.577E-02 0.912E-05
CGA:  11    -0.343961921070E+03   -0.14139E-03   -0.14175E-03  7488   0.171E-02 0.311E-05
CGA:  12    -0.343961980757E+03   -0.59687E-04   -0.59771E-04  7488   0.603E-03 0.691E-05
CGA:  13    -0.343962017196E+03   -0.36439E-04   -0.36365E-04  7488   0.901E-03 0.559E-05
CGA:  14    -0.343962062927E+03   -0.45730E-04   -0.45711E-04  7488   0.331E-03 0.669E-05
CGA:  15    -0.343962080145E+03   -0.17219E-04   -0.17208E-04  7488   0.205E-03 0.261E-05
CGA:  16    -0.343962088738E+03   -0.85929E-05   -0.86011E-05  7488   0.180E-03 0.127E-05
  57 F= -.34396209E+03 E0= -.34394213E+03  d E =0.103031E-02  mag=    20.0000
       N       E                     dE             d eps       ncg     rms          ort
SDA:   1    -0.343944752346E+03    0.17328E-01    0.00000E+00  7488   0.259E+00 0.000E+00
CGA:   2    -0.343949189569E+03   -0.44372E-02   -0.43799E-02  7488   0.617E-01 0.243E-02
CGA:   3    -0.343952281945E+03   -0.30924E-02   -0.30922E-02  7488   0.685E-01 0.302E-04
CGA:   4    -0.343957511656E+03   -0.52297E-02   -0.52311E-02  7488   0.552E-01-0.356E-04
CGA:   5    -0.343959695736E+03   -0.21841E-02   -0.21846E-02  7488   0.311E-01 0.238E-04
CGA:   6    -0.343960933617E+03   -0.12379E-02   -0.12382E-02  7488   0.144E-01 0.201E-04
CGA:   7    -0.343961633278E+03   -0.69966E-03   -0.69965E-03  7488   0.128E-01 0.579E-05
CGA:   8    -0.343961972560E+03   -0.33928E-03   -0.33975E-03  7488   0.621E-02-0.371E-06
CGA:   9    -0.343962316100E+03   -0.34354E-03   -0.34352E-03  7488   0.270E-02 0.204E-05
CGA:  10    -0.343962460794E+03   -0.14469E-03   -0.14475E-03  7488   0.639E-03-0.426E-05
CGA:  11    -0.343962496108E+03   -0.35314E-04   -0.35316E-04  7488   0.706E-03-0.135E-06
CGA:  12    -0.343962544338E+03   -0.48230E-04   -0.48247E-04  7488   0.647E-03-0.747E-06
CGA:  13    -0.343962558962E+03   -0.14624E-04   -0.14608E-04  7488   0.141E-03-0.190E-06
CGA:  14    -0.343962564500E+03   -0.55385E-05   -0.55360E-05  7488   0.156E-03-0.386E-06
CGA:  15    -0.343962574613E+03   -0.10112E-04   -0.10123E-04  7488   0.140E-03-0.550E-06
CGA:  16    -0.343962580552E+03   -0.59399E-05   -0.59398E-05  7488   0.283E-04-0.395E-07
  58 F= -.34396258E+03 E0= -.34394262E+03  d E =-.491814E-03  mag=    20.0000
       N       E                     dE             d eps       ncg     rms          ort
SDA:   1    -0.343956717312E+03    0.58573E-02    0.00000E+00  7488   0.102E+00 0.000E+00
CGA:   2    -0.343958369501E+03   -0.16522E-02   -0.16363E-02  7488   0.206E-01 0.756E-03
CGA:   3    -0.343959425329E+03   -0.10558E-02   -0.10555E-02  7488   0.204E-01 0.441E-04
CGA:   4    -0.343961305411E+03   -0.18801E-02   -0.18796E-02  7488   0.230E-01 0.143E-04
CGA:   5    -0.343962061791E+03   -0.75638E-03   -0.75569E-03  7488   0.686E-02-0.561E-05
CGA:   6    -0.343962351268E+03   -0.28948E-03   -0.28938E-03  7488   0.504E-02-0.108E-04
CGA:   7    -0.343962668332E+03   -0.31706E-03   -0.31733E-03  7488   0.542E-02-0.162E-04
CGA:   8    -0.343962794111E+03   -0.12578E-03   -0.12583E-03  7488   0.153E-02-0.907E-05
CGA:   9    -0.343962848843E+03   -0.54732E-04   -0.54702E-04  7488   0.543E-03-0.224E-05
CGA:  10    -0.343962892097E+03   -0.43254E-04   -0.43364E-04  7488   0.418E-03-0.326E-05
CGA:  11    -0.343962916611E+03   -0.24515E-04   -0.24545E-04  7488   0.206E-03-0.284E-05
CGA:  12    -0.343962923810E+03   -0.71986E-05   -0.71838E-05  7488   0.129E-03-0.107E-05
  59 F= -.34396292E+03 E0= -.34394296E+03  d E =-.343257E-03  mag=    20.0000
