       N       E                     dE             d eps       ncg     rms          ort
DAV:   1     0.539068172461E+04    0.53907E+04   -0.25782E+05  7488   0.160E+03
DAV:   2     0.275893658615E+03   -0.51148E+04   -0.48588E+04  7488   0.451E+02
DAV:   3    -0.377945632645E+03   -0.65384E+03   -0.63837E+03  7488   0.173E+02
DAV:   4    -0.403325026405E+03   -0.25379E+02   -0.24937E+02  7488   0.392E+01
DAV:   5    -0.404315821301E+03   -0.99079E+00   -0.98291E+00  7488   0.684E+00
SDA:   6    -0.177343726924E+03    0.22697E+03   -0.98291E+00  7488   0.156E+04 0.000E+00
CGA:   7    -0.177403087957E+03   -0.59361E-01   -0.99394E+02  7488   0.407E+04-0.492E+03
CGA:   8    -0.196751164995E+03   -0.19348E+02   -0.10181E+03  7488   0.271E+04-0.124E+04
CGA:   9    -0.219810026248E+03   -0.23059E+02   -0.60353E+02  7488   0.263E+04-0.338E+04
CGA:  10    -0.181425261529E+03    0.38385E+02   -0.10708E+03  7488   0.251E+04-0.150E+04
CGA:  11     0.168210264069E+02    0.19825E+03   -0.12661E+03  7488   0.520E+04-0.297E+04
CGA:  12    -0.281839739413E+03   -0.29866E+03   -0.12260E+03  7488   0.137E+04-0.431E+04
CGA:  13    -0.255335065152E+03    0.26505E+02   -0.47797E+02  7488   0.315E+04-0.216E+04
CGA:  14    -0.179125144351E+03    0.76210E+02   -0.13186E+03  7488   0.446E+04-0.277E+04
CGA:  15     0.448989239722E+02    0.22402E+03   -0.23970E+03  7488   0.214E+04-0.131E+04
CGA:  16    -0.498136560482E+02   -0.94713E+02   -0.14673E+02  7488   0.162E+05 0.176E+05
CGA:  17     0.295808467130E+03    0.34562E+03   -0.79745E+03  7488   0.555E+05-0.338E+05
CGA:  18     0.941290184607E+02   -0.20168E+03   -0.31229E+04  7488   0.110E+04-0.123E+04
CGA:  19     0.490859477360E+02   -0.45043E+02   -0.15448E+02  7488   0.158E+04 0.185E+04
CGA:  20    -0.174306849352E+03   -0.22339E+03   -0.25749E+02  7488   0.885E+04 0.156E+05
CGA:  21    -0.145198855719E+03    0.29108E+02   -0.34921E+03  7488   0.278E+04-0.223E+04
CGA:  22    -0.210841967145E+03   -0.65643E+02   -0.61481E+02  7488   0.723E+04-0.872E+04
CGA:  23    -0.113595001494E+03    0.97247E+02   -0.26505E+03  7488   0.168E+04-0.109E+04
CGA:  24    -0.310859481530E+03   -0.19726E+03   -0.28119E+02  7488   0.978E+03-0.265E+04
CGA:  25    -0.312773330827E+03   -0.19138E+01   -0.25143E+02  7488   0.276E+04-0.239E+04
CGA:  26    -0.281990848375E+03    0.30782E+02   -0.79713E+02  7488   0.257E+04-0.157E+04
CGA:  27    -0.186988800856E+03    0.95002E+02   -0.71135E+02  7488   0.118E+05-0.685E+04
CGA:  28     0.351037328188E+02    0.22209E+03   -0.44595E+03  7488   0.378E+04-0.211E+04
CGA:  29    -0.307635350731E+03   -0.34274E+03   -0.58276E+02  7488   0.153E+04-0.584E+04
CGA:  30    -0.321275645494E+03   -0.13640E+02   -0.31309E+02  7488   0.136E+04-0.546E+03
CGA:  31    -0.308751456796E+03    0.12524E+02   -0.16349E+02  7488   0.123E+04-0.102E+04
CGA:  32    -0.317151372262E+03   -0.83999E+01   -0.32639E+02  7488   0.128E+04-0.942E+03
CGA:  33    -0.324321796673E+03   -0.71704E+01   -0.26296E+02  7488   0.137E+04-0.107E+04
CGA:  34    -0.319441797567E+03    0.48800E+01   -0.25031E+02  7488   0.183E+04-0.132E+04
CGA:  35    -0.303049186513E+03    0.16393E+02   -0.31504E+02  7488   0.469E+04-0.319E+04
CGA:  36    -0.276018175981E+03    0.27031E+02   -0.10612E+03  7488   0.370E+04-0.235E+04
CGA:  37    -0.249892339806E+03    0.26126E+02   -0.80725E+02  7488   0.826E+04-0.678E+04
CGA:  38    -0.216606318707E+03    0.33286E+02   -0.19370E+03  7488   0.698E+04-0.560E+04
CGA:  39    -0.161326552524E+03    0.55280E+02   -0.17371E+03  7488   0.164E+05-0.130E+05
CGA:  40    -0.203321852609E+03   -0.41995E+02   -0.36054E+03  7488   0.691E+04-0.768E+04
CGA:  41    -0.279258305980E+03   -0.75936E+02   -0.77208E+02  7488   0.515E+04-0.792E+04
CGA:  42    -0.214502412423E+03    0.64756E+02   -0.96561E+02  7488   0.147E+05-0.103E+05
CGA:  43    -0.880000452129E+02    0.12650E+03   -0.35345E+03  7488   0.551E+04-0.326E+04
CGA:  44    -0.310383577962E+03   -0.22238E+03   -0.48565E+02  7488   0.241E+04 0.541E+03
CGA:  45    -0.284816161699E+03    0.25567E+02   -0.36093E+02  7488   0.335E+04-0.250E+04
CGA:  46    -0.316082456968E+03   -0.31266E+02   -0.48438E+02  7488   0.580E+04-0.829E+04
CGA:  47    -0.296237353243E+03    0.19845E+02   -0.10021E+03  7488   0.286E+04-0.202E+04
CGA:  48    -0.335830409157E+03   -0.39593E+02   -0.17833E+02  7488   0.900E+03 0.183E+04
CGA:  49    -0.339862337313E+03   -0.40319E+01   -0.58159E+01  7488   0.236E+03-0.499E+03
CGA:  50    -0.339641497078E+03    0.22084E+00   -0.21688E+01  7488   0.260E+03-0.211E+03
CGA:  51    -0.340841877870E+03   -0.12004E+01   -0.98907E+00  7488   0.103E+02 0.452E+02
CGA:  52    -0.340903931976E+03   -0.62054E-01   -0.59140E-01  7488   0.512E+01 0.536E+00
CGA:  53    -0.341183262177E+03   -0.27933E+00   -0.27708E+00  7488   0.542E+02 0.127E+00
CGA:  54    -0.341732003188E+03   -0.54874E+00   -0.37985E+00  7488   0.458E+02 0.245E+02
CGA:  55    -0.342124871957E+03   -0.39287E+00   -0.30052E+00  7488   0.117E+02 0.208E+02
CGA:  56    -0.342245975889E+03   -0.12110E+00   -0.11517E+00  7488   0.876E+01 0.955E+00
CGA:  57    -0.342388923788E+03   -0.14295E+00   -0.15254E+00  7488   0.179E+02-0.177E+00
CGA:  58    -0.342534114816E+03   -0.14519E+00   -0.15953E+00  7488   0.928E+01-0.713E+00
CGA:  59    -0.342612475236E+03   -0.78360E-01   -0.77766E-01  7488   0.678E+01 0.147E+00
CGA:  60    -0.342694375380E+03   -0.81900E-01   -0.88244E-01  7488   0.508E+01-0.297E+00
CGA:  61    -0.342744140039E+03   -0.49765E-01   -0.55371E-01  7488   0.437E+01-0.308E+00
CGA:  62    -0.342828629584E+03   -0.84490E-01   -0.85108E-01  7488   0.450E+01 0.293E-01
CGA:  63    -0.342878743378E+03   -0.50114E-01   -0.52871E-01  7488   0.281E+01-0.134E+00
CGA:  64    -0.342946778276E+03   -0.68035E-01   -0.68461E-01  7488   0.407E+01 0.115E+00
CGA:  65    -0.343025568453E+03   -0.78790E-01   -0.84385E-01  7488   0.230E+01 0.197E+00
CGA:  66    -0.343085044161E+03   -0.59476E-01   -0.59748E-01  7488   0.678E+00 0.802E-01
CGA:  67    -0.343102626804E+03   -0.17583E-01   -0.17633E-01  7488   0.811E+00 0.209E-01
CGA:  68    -0.343159610883E+03   -0.56984E-01   -0.53049E-01  7488   0.749E+00 0.109E+00
CGA:  69    -0.343188374634E+03   -0.28764E-01   -0.28197E-01  7488   0.319E+00 0.710E-01
CGA:  70    -0.343202310339E+03   -0.13936E-01   -0.13693E-01  7488   0.471E+00 0.169E-01
CGA:  71    -0.343222784518E+03   -0.20474E-01   -0.20067E-01  7488   0.306E+00 0.273E-01
CGA:  72    -0.343239459850E+03   -0.16675E-01   -0.16063E-01  7488   0.127E+00 0.267E-01
CGA:  73    -0.343247126775E+03   -0.76669E-02   -0.75208E-02  7488   0.168E+00 0.563E-02
CGA:  74    -0.343254921376E+03   -0.77946E-02   -0.77361E-02  7488   0.144E+00 0.339E-02
CGA:  75    -0.343260542567E+03   -0.56212E-02   -0.55806E-02  7488   0.703E-01 0.433E-02
CGA:  76    -0.343263776901E+03   -0.32343E-02   -0.32163E-02  7488   0.649E-01 0.108E-02
CGA:  77    -0.343266934305E+03   -0.31574E-02   -0.31410E-02  7488   0.374E-01 0.816E-03
CGA:  78    -0.343268738518E+03   -0.18042E-02   -0.17979E-02  7488   0.228E-01 0.310E-03
CGA:  79    -0.343269868025E+03   -0.11295E-02   -0.11264E-02  7488   0.311E-01 0.149E-03
CGA:  80    -0.343271494210E+03   -0.16262E-02   -0.16253E-02  7488   0.176E-01 0.130E-04
SDA:  81    -0.343272338199E+03   -0.84399E-03   -0.84021E-03  7488   0.715E-02 0.226E-03
CGA:  82    -0.343272507317E+03   -0.16912E-03   -0.16948E-03  7488   0.332E-02 0.104E-04
CGA:  83    -0.343272750977E+03   -0.24366E-03   -0.24119E-03  7488   0.587E-02 0.664E-04
CGA:  84    -0.343273178274E+03   -0.42730E-03   -0.42300E-03  7488   0.636E-02 0.129E-03
CGA:  85    -0.343273595544E+03   -0.41727E-03   -0.41371E-03  7488   0.914E-02 0.144E-03
CGA:  86    -0.343274101395E+03   -0.50585E-03   -0.50432E-03  7488   0.211E-02 0.125E-03
CGA:  87    -0.343274178985E+03   -0.77590E-04   -0.77710E-04  7488   0.769E-03 0.188E-04
CGA:  88    -0.343274219048E+03   -0.40063E-04   -0.40031E-04  7488   0.141E-02 0.215E-05
CGA:  89    -0.343274336014E+03   -0.11697E-03   -0.11705E-03  7488   0.149E-02-0.310E-05
CGA:  90    -0.343274397848E+03   -0.61834E-04   -0.61838E-04  7488   0.256E-03-0.294E-05
CGA:  91    -0.343274419077E+03   -0.21228E-04   -0.21761E-04  7488   0.839E-03-0.137E-04
CGA:  92    -0.343274499725E+03   -0.80648E-04   -0.85968E-04  7488   0.604E-03-0.871E-04
CGA:  93    -0.343274514726E+03   -0.15001E-04   -0.14761E-04  7488   0.190E-03-0.141E-04
CGA:  94    -0.343274522089E+03   -0.73629E-05   -0.73202E-05  7488   0.187E-03-0.590E-05
CGA:  95    -0.343274537764E+03   -0.15675E-04   -0.16050E-04  7488   0.163E-03-0.988E-05
CGA:  96    -0.343274547563E+03   -0.97984E-05   -0.98275E-05  7488   0.197E-03-0.267E-05
CGA:  97    -0.343274558282E+03   -0.10719E-04   -0.10723E-04  7488   0.134E-03-0.127E-05
CGA:  98    -0.343274561527E+03   -0.32453E-05   -0.32564E-05  7488   0.357E-04-0.381E-06
   1 F= -.34327456E+03 E0= -.34325393E+03  d E =-.343275E+03  mag=    20.0000
       N       E                     dE             d eps       ncg     rms          ort
SDA:   1    -0.343267519618E+03    0.70387E-02    0.00000E+00  7488   0.393E+00 0.000E+00
CGA:   2    -0.343274185654E+03   -0.66660E-02   -0.65923E-02  7488   0.136E-01 0.337E-02
CGA:   3    -0.343274491428E+03   -0.30577E-03   -0.30584E-03  7488   0.166E-02-0.497E-05
CGA:   4    -0.343274529795E+03   -0.38366E-04   -0.38367E-04  7488   0.337E-03 0.181E-05
CGA:   5    -0.343274551007E+03   -0.21212E-04   -0.21133E-04  7488   0.202E-03 0.504E-05
CGA:   6    -0.343274561869E+03   -0.10862E-04   -0.10843E-04  7488   0.127E-03 0.370E-05
CGA:   7    -0.343274572522E+03   -0.10654E-04   -0.10589E-04  7488   0.797E-04 0.192E-05
CGA:   8    -0.343274576164E+03   -0.36412E-05   -0.36358E-05  7488   0.434E-04-0.107E-05
   2 F= -.34327458E+03 E0= -.34325395E+03  d E =-.146365E-04  mag=    20.0000
       N       E                     dE             d eps       ncg     rms          ort
SDA:   1    -0.343272037855E+03    0.25347E-02    0.00000E+00  7488   0.127E+00 0.000E+00
CGA:   2    -0.343274122065E+03   -0.20842E-02   -0.20813E-02  7488   0.662E-02 0.133E-03
CGA:   3    -0.343274298700E+03   -0.17664E-03   -0.17620E-03  7488   0.156E-02 0.321E-05
CGA:   4    -0.343274353781E+03   -0.55080E-04   -0.55051E-04  7488   0.991E-03-0.203E-05
CGA:   5    -0.343274435439E+03   -0.81658E-04   -0.81781E-04  7488   0.991E-03-0.329E-05
CGA:   6    -0.343274484017E+03   -0.48579E-04   -0.48579E-04  7488   0.439E-03-0.517E-06
CGA:   7    -0.343274514904E+03   -0.30886E-04   -0.30893E-04  7488   0.206E-03-0.374E-06
CGA:   8    -0.343274525938E+03   -0.11034E-04   -0.11039E-04  7488   0.114E-03-0.106E-05
CGA:   9    -0.343274538262E+03   -0.12324E-04   -0.12341E-04  7488   0.777E-04-0.270E-06
CGA:  10    -0.343274539827E+03   -0.15643E-05   -0.15647E-05  7488   0.155E-04 0.129E-07
   3 F= -.34327454E+03 E0= -.34325392E+03  d E =0.363371E-04  mag=    20.0000
       N       E                     dE             d eps       ncg     rms          ort
SDA:   1    -0.343224073209E+03    0.50465E-01    0.00000E+00  7488   0.248E+00 0.000E+00
CGA:   2    -0.343233580182E+03   -0.95070E-02   -0.94973E-02  7488   0.207E+00-0.104E-03
CGA:   3    -0.343252617063E+03   -0.19037E-01   -0.18997E-01  7488   0.295E+00 0.925E-03
CGA:   4    -0.343264131279E+03   -0.11514E-01   -0.11494E-01  7488   0.486E-01-0.199E-03
CGA:   5    -0.343269704217E+03   -0.55729E-02   -0.55755E-02  7488   0.711E-01-0.378E-04
CGA:   6    -0.343272622075E+03   -0.29179E-02   -0.29180E-02  7488   0.185E-01-0.808E-05
CGA:   7    -0.343273061931E+03   -0.43986E-03   -0.44035E-03  7488   0.718E-02-0.105E-04
CGA:   8    -0.343273660937E+03   -0.59901E-03   -0.59903E-03  7488   0.828E-02 0.979E-06
CGA:   9    -0.343273947972E+03   -0.28704E-03   -0.28716E-03  7488   0.219E-02 0.160E-05
CGA:  10    -0.343274042947E+03   -0.94974E-04   -0.94998E-04  7488   0.161E-02 0.163E-05
CGA:  11    -0.343274134125E+03   -0.91178E-04   -0.91166E-04  7488   0.889E-03 0.261E-05
CGA:  12    -0.343274174880E+03   -0.40755E-04   -0.40764E-04  7488   0.894E-03 0.128E-05
CGA:  13    -0.343274211750E+03   -0.36869E-04   -0.36873E-04  7488   0.522E-03 0.273E-06
CGA:  14    -0.343274235074E+03   -0.23325E-04   -0.23323E-04  7488   0.119E-03-0.349E-06
CGA:  15    -0.343274242686E+03   -0.76115E-05   -0.76140E-05  7488   0.143E-03-0.186E-06
   4 F= -.34327424E+03 E0= -.34325363E+03  d E =0.297141E-03  mag=    20.0000
       N       E                     dE             d eps       ncg     rms          ort
SDA:   1    -0.343176842402E+03    0.97393E-01    0.00000E+00  7488   0.202E+01 0.000E+00
CGA:   2    -0.343209340417E+03   -0.32498E-01   -0.32804E-01  7488   0.253E+00-0.157E-01
CGA:   3    -0.343229467947E+03   -0.20128E-01   -0.20192E-01  7488   0.402E+00-0.189E-02
CGA:   4    -0.343251288638E+03   -0.21821E-01   -0.21819E-01  7488   0.218E+00 0.314E-03
CGA:   5    -0.343258533677E+03   -0.72450E-02   -0.72478E-02  7488   0.902E-01 0.131E-04
CGA:   6    -0.343266441424E+03   -0.79077E-02   -0.79078E-02  7488   0.116E+00 0.190E-04
CGA:   7    -0.343271110285E+03   -0.46689E-02   -0.46683E-02  7488   0.567E-01 0.114E-04
CGA:   8    -0.343272506403E+03   -0.13961E-02   -0.13982E-02  7488   0.107E-01-0.469E-04
CGA:   9    -0.343273205314E+03   -0.69891E-03   -0.69896E-03  7488   0.125E-01-0.205E-05
CGA:  10    -0.343273988731E+03   -0.78342E-03   -0.78345E-03  7488   0.430E-02-0.984E-06
CGA:  11    -0.343274104136E+03   -0.11541E-03   -0.11539E-03  7488   0.162E-02-0.264E-06
CGA:  12    -0.343274211630E+03   -0.10749E-03   -0.10751E-03  7488   0.224E-02-0.126E-05
CGA:  13    -0.343274307460E+03   -0.95830E-04   -0.95824E-04  7488   0.128E-02-0.365E-06
CGA:  14    -0.343274358359E+03   -0.50899E-04   -0.50903E-04  7488   0.661E-03 0.735E-06
CGA:  15    -0.343274400353E+03   -0.41994E-04   -0.41997E-04  7488   0.278E-03-0.722E-07
CGA:  16    -0.343274413159E+03   -0.12806E-04   -0.12804E-04  7488   0.267E-03-0.201E-06
CGA:  17    -0.343274425839E+03   -0.12680E-04   -0.12680E-04  7488   0.270E-03-0.606E-07
CGA:  18    -0.343274440044E+03   -0.14205E-04   -0.14204E-04  7488   0.884E-04 0.579E-06
CGA:  19    -0.343274443094E+03   -0.30508E-05   -0.30539E-05  7488   0.462E-04 0.173E-06
   5 F= -.34327444E+03 E0= -.34325380E+03  d E =-.200408E-03  mag=    20.0000
       N       E                     dE             d eps       ncg     rms          ort
SDA:   1    -0.343230319492E+03    0.44121E-01    0.00000E+00  7488   0.334E+00 0.000E+00
CGA:   2    -0.343238156655E+03   -0.78372E-02   -0.78366E-02  7488   0.165E+00 0.475E-04
CGA:   3    -0.343254398513E+03   -0.16242E-01   -0.16244E-01  7488   0.300E+00-0.517E-04
CGA:   4    -0.343264964576E+03   -0.10566E-01   -0.10557E-01  7488   0.931E-01-0.102E-04
CGA:   5    -0.343268572996E+03   -0.36084E-02   -0.36014E-02  7488   0.551E-01-0.717E-04
CGA:   6    -0.343273371829E+03   -0.47988E-02   -0.48027E-02  7488   0.471E-01-0.986E-04
CGA:   7    -0.343275165509E+03   -0.17937E-02   -0.17967E-02  7488   0.100E-01 0.280E-04
CGA:   8    -0.343275488053E+03   -0.32254E-03   -0.32257E-03  7488   0.757E-02 0.418E-05
CGA:   9    -0.343275959226E+03   -0.47117E-03   -0.47111E-03  7488   0.697E-02 0.509E-05
CGA:  10    -0.343276276016E+03   -0.31679E-03   -0.31672E-03  7488   0.136E-02-0.705E-05
CGA:  11    -0.343276323242E+03   -0.47226E-04   -0.47208E-04  7488   0.908E-03-0.131E-05
CGA:  12    -0.343276394299E+03   -0.71057E-04   -0.71104E-04  7488   0.150E-02-0.162E-05
CGA:  13    -0.343276456545E+03   -0.62246E-04   -0.62230E-04  7488   0.459E-03-0.144E-05
CGA:  14    -0.343276468030E+03   -0.11484E-04   -0.11469E-04  7488   0.144E-03-0.252E-06
CGA:  15    -0.343276484405E+03   -0.16376E-04   -0.16438E-04  7488   0.200E-03-0.994E-06
CGA:  16    -0.343276494257E+03   -0.98511E-05   -0.98539E-05  7488   0.132E-03 0.774E-06
   6 F= -.34327649E+03 E0= -.34325585E+03  d E =-.205116E-02  mag=    20.0000
       N       E                     dE             d eps       ncg     rms          ort
SDA:   1    -0.341895287793E+03    0.13812E+01    0.00000E+00  7488   0.511E+01 0.000E+00
CGA:   2    -0.342149103130E+03   -0.25382E+00   -0.25422E+00  7488   0.876E+01 0.878E-01
CGA:   3    -0.342761230784E+03   -0.61213E+00   -0.61517E+00  7488   0.773E+01-0.140E+00
CGA:   4    -0.342990981304E+03   -0.22975E+00   -0.22984E+00  7488   0.223E+01 0.779E-02
CGA:   5    -0.343077886924E+03   -0.86906E-01   -0.86568E-01  7488   0.162E+01-0.449E-02
CGA:   6    -0.343221676367E+03   -0.14379E+00   -0.14375E+00  7488   0.644E+00 0.271E-03
CGA:   7    -0.343243921763E+03   -0.22245E-01   -0.22257E-01  7488   0.454E+00-0.332E-04
CGA:   8    -0.343261911773E+03   -0.17990E-01   -0.17997E-01  7488   0.242E+00 0.132E-03
CGA:   9    -0.343271793381E+03   -0.98816E-02   -0.98569E-02  7488   0.757E-01-0.565E-03
CGA:  10    -0.343278838870E+03   -0.70455E-02   -0.70126E-02  7488   0.106E+00 0.755E-03
CGA:  11    -0.343281840907E+03   -0.30020E-02   -0.30013E-02  7488   0.274E-01 0.200E-04
CGA:  12    -0.343283015110E+03   -0.11742E-02   -0.11746E-02  7488   0.200E-01 0.105E-04
CGA:  13    -0.343284136235E+03   -0.11211E-02   -0.11211E-02  7488   0.273E-01 0.109E-04
CGA:  14    -0.343285495128E+03   -0.13589E-02   -0.13589E-02  7488   0.586E-02-0.250E-05
CGA:  15    -0.343285739979E+03   -0.24485E-03   -0.24489E-03  7488   0.353E-02-0.940E-06
CGA:  16    -0.343285952576E+03   -0.21260E-03   -0.21251E-03  7488   0.642E-02 0.615E-05
CGA:  17    -0.343286298860E+03   -0.34628E-03   -0.34625E-03  7488   0.275E-02 0.836E-05
CGA:  18    -0.343286410813E+03   -0.11195E-03   -0.11205E-03  7488   0.175E-02 0.309E-05
CGA:  19    -0.343286516739E+03   -0.10593E-03   -0.10591E-03  7488   0.149E-02 0.150E-05
CGA:  20    -0.343286574066E+03   -0.57327E-04   -0.57373E-04  7488   0.931E-03 0.139E-05
CGA:  21    -0.343286658813E+03   -0.84747E-04   -0.84582E-04  7488   0.235E-02 0.405E-05
CGA:  22    -0.343286753986E+03   -0.95173E-04   -0.95266E-04  7488   0.637E-03 0.440E-05
CGA:  23    -0.343286780090E+03   -0.26104E-04   -0.26126E-04  7488   0.316E-03 0.159E-05
CGA:  24    -0.343286814510E+03   -0.34420E-04   -0.34337E-04  7488   0.925E-03 0.124E-05
CGA:  25    -0.343286848035E+03   -0.33525E-04   -0.33555E-04  7488   0.288E-03 0.116E-05
CGA:  26    -0.343286860283E+03   -0.12247E-04   -0.12262E-04  7488   0.160E-03 0.104E-05
CGA:  27    -0.343286868677E+03   -0.83944E-05   -0.83949E-05  7488   0.169E-03 0.552E-06
CGA:  28    -0.343286878967E+03   -0.10290E-04   -0.10288E-04  7488   0.116E-03-0.264E-07
CGA:  29    -0.343286884690E+03   -0.57237E-05   -0.57232E-05  7488   0.121E-03-0.273E-06
   7 F= -.34328688E+03 E0= -.34326643E+03  d E =-.103904E-01  mag=    20.0000
       N       E                     dE             d eps       ncg     rms          ort
SDA:   1    -0.338801717399E+03    0.44852E+01    0.00000E+00  7488   0.160E+02 0.000E+00
CGA:   2    -0.339793511359E+03   -0.99179E+00   -0.98907E+00  7488   0.376E+02 0.212E+00
CGA:   3    -0.341694634586E+03   -0.19011E+01   -0.18955E+01  7488   0.140E+02-0.687E+00
CGA:   4    -0.342280486260E+03   -0.58585E+00   -0.56884E+00  7488   0.588E+01-0.251E+00
CGA:   5    -0.342655868236E+03   -0.37538E+00   -0.37695E+00  7488   0.126E+02-0.854E-01
CGA:   6    -0.343082829853E+03   -0.42696E+00   -0.43187E+00  7488   0.168E+01 0.930E-02
CGA:   7    -0.343146909069E+03   -0.64079E-01   -0.63813E-01  7488   0.114E+01-0.178E-02
CGA:   8    -0.343211449088E+03   -0.64540E-01   -0.64540E-01  7488   0.965E+00-0.502E-04
CGA:   9    -0.343248609601E+03   -0.37161E-01   -0.37099E-01  7488   0.306E+00-0.652E-03
CGA:  10    -0.343265852427E+03   -0.17243E-01   -0.17229E-01  7488   0.182E+00 0.160E-02
CGA:  11    -0.343276230836E+03   -0.10378E-01   -0.10362E-01  7488   0.104E+00 0.187E-02
CGA:  12    -0.343279824553E+03   -0.35937E-02   -0.36123E-02  7488   0.102E+00 0.422E-04
CGA:  13    -0.343286062492E+03   -0.62379E-02   -0.62378E-02  7488   0.650E-01 0.169E-04
CGA:  14    -0.343288949535E+03   -0.28870E-02   -0.28909E-02  7488   0.126E-01 0.195E-03
CGA:  15    -0.343289948544E+03   -0.99901E-03   -0.99817E-03  7488   0.297E-01 0.204E-04
CGA:  16    -0.343291509886E+03   -0.15613E-02   -0.15612E-02  7488   0.216E-01 0.266E-03
CGA:  17    -0.343292195744E+03   -0.68586E-03   -0.68592E-03  7488   0.525E-02 0.971E-05
CGA:  18    -0.343292434879E+03   -0.23913E-03   -0.23926E-03  7488   0.661E-02 0.930E-05
CGA:  19    -0.343293059119E+03   -0.62424E-03   -0.62363E-03  7488   0.582E-02 0.123E-04
CGA:  20    -0.343293357945E+03   -0.29883E-03   -0.29887E-03  7488   0.473E-02 0.168E-04
CGA:  21    -0.343293554792E+03   -0.19685E-03   -0.19695E-03  7488   0.411E-02 0.589E-05
CGA:  22    -0.343293732911E+03   -0.17812E-03   -0.17824E-03  7488   0.170E-02 0.371E-05
CGA:  23    -0.343293878978E+03   -0.14607E-03   -0.14604E-03  7488   0.247E-02 0.856E-07
CGA:  24    -0.343294033723E+03   -0.15474E-03   -0.15471E-03  7488   0.192E-02 0.247E-05
CGA:  25    -0.343294084263E+03   -0.50539E-04   -0.50569E-04  7488   0.612E-03-0.981E-07
CGA:  26    -0.343294120276E+03   -0.36013E-04   -0.36010E-04  7488   0.682E-03-0.405E-07
CGA:  27    -0.343294189374E+03   -0.69098E-04   -0.69016E-04  7488   0.770E-03 0.140E-05
CGA:  28    -0.343294209692E+03   -0.20318E-04   -0.20331E-04  7488   0.199E-03 0.157E-06
CGA:  29    -0.343294222881E+03   -0.13189E-04   -0.13189E-04  7488   0.322E-03-0.309E-06
CGA:  30    -0.343294241084E+03   -0.18203E-04   -0.18203E-04  7488   0.339E-03-0.250E-06
CGA:  31    -0.343294254902E+03   -0.13818E-04   -0.13822E-04  7488   0.115E-03 0.173E-06
SDA:  32    -0.343294264302E+03   -0.93993E-05   -0.94152E-05  7488   0.109E-03-0.748E-06
   8 F= -.34329426E+03 E0= -.34327385E+03  d E =-.737961E-02  mag=    20.0000
       N       E                     dE             d eps       ncg     rms          ort
SDA:   1    -0.341634838823E+03    0.16594E+01    0.00000E+00  7488   0.664E+01 0.000E+00
CGA:   2    -0.342031882691E+03   -0.39704E+00   -0.40037E+00  7488   0.111E+02-0.310E+00
CGA:   3    -0.342439355493E+03   -0.40747E+00   -0.39989E+00  7488   0.116E+02-0.198E-01
CGA:   4    -0.342858446237E+03   -0.41909E+00   -0.43856E+00  7488   0.479E+01 0.167E+00
CGA:   5    -0.342963637818E+03   -0.10519E+00   -0.10656E+00  7488   0.226E+01-0.396E-01
CGA:   6    -0.343128059387E+03   -0.16442E+00   -0.16462E+00  7488   0.268E+01-0.731E-02
CGA:   7    -0.343224897923E+03   -0.96839E-01   -0.96984E-01  7488   0.141E+01 0.163E-02
CGA:   8    -0.343257898566E+03   -0.33001E-01   -0.32889E-01  7488   0.304E+00 0.300E-02
CGA:   9    -0.343269355225E+03   -0.11457E-01   -0.11470E-01  7488   0.303E+00 0.233E-03
CGA:  10    -0.343288870414E+03   -0.19515E-01   -0.19512E-01  7488   0.241E+00 0.169E-03
CGA:  11    -0.343295124327E+03   -0.62539E-02   -0.62577E-02  7488   0.820E-01-0.400E-04
CGA:  12    -0.343297419168E+03   -0.22948E-02   -0.22997E-02  7488   0.336E-01-0.440E-04
CGA:  13    -0.343300319940E+03   -0.29008E-02   -0.28969E-02  7488   0.488E-01 0.959E-04
CGA:  14    -0.343301728849E+03   -0.14089E-02   -0.14113E-02  7488   0.285E-01-0.119E-04
CGA:  15    -0.343302990557E+03   -0.12617E-02   -0.12620E-02  7488   0.162E-01 0.381E-04
CGA:  16    -0.343303703124E+03   -0.71257E-03   -0.71258E-03  7488   0.828E-02 0.349E-05
CGA:  17    -0.343303940665E+03   -0.23754E-03   -0.23761E-03  7488   0.493E-02 0.108E-05
CGA:  18    -0.343304217588E+03   -0.27692E-03   -0.27685E-03  7488   0.608E-02 0.673E-05
CGA:  19    -0.343304561110E+03   -0.34352E-03   -0.34338E-03  7488   0.495E-02 0.141E-04
CGA:  20    -0.343304710135E+03   -0.14902E-03   -0.14925E-03  7488   0.140E-02 0.346E-05
CGA:  21    -0.343304755830E+03   -0.45695E-04   -0.45695E-04  7488   0.112E-02-0.231E-06
CGA:  22    -0.343304839229E+03   -0.83398E-04   -0.83426E-04  7488   0.200E-02-0.103E-05
CGA:  23    -0.343304963831E+03   -0.12460E-03   -0.12458E-03  7488   0.859E-03 0.402E-06
CGA:  24    -0.343304984948E+03   -0.21117E-04   -0.21118E-04  7488   0.469E-03-0.191E-06
CGA:  25    -0.343305018082E+03   -0.33134E-04   -0.33117E-04  7488   0.563E-03 0.590E-06
CGA:  26    -0.343305055523E+03   -0.37441E-04   -0.37438E-04  7488   0.610E-03 0.475E-07
CGA:  27    -0.343305073548E+03   -0.18025E-04   -0.18029E-04  7488   0.309E-03-0.155E-06
CGA:  28    -0.343305089156E+03   -0.15608E-04   -0.15609E-04  7488   0.250E-03-0.277E-06
CGA:  29    -0.343305098023E+03   -0.88668E-05   -0.88655E-05  7488   0.130E-03-0.211E-06
   9 F= -.34330510E+03 E0= -.34328456E+03  d E =-.108337E-01  mag=    20.0000
       N       E                     dE             d eps       ncg     rms          ort
SDA:   1    -0.342113911802E+03    0.11912E+01    0.00000E+00  7488   0.122E+02 0.000E+00
CGA:   2    -0.342380654337E+03   -0.26674E+00   -0.29355E+00  7488   0.472E+01-0.558E+00
CGA:   3    -0.342651120294E+03   -0.27047E+00   -0.27151E+00  7488   0.593E+01-0.589E-01
CGA:   4    -0.342956607844E+03   -0.30549E+00   -0.30555E+00  7488   0.392E+01-0.770E-02
CGA:   5    -0.343071748649E+03   -0.11514E+00   -0.11439E+00  7488   0.120E+01 0.715E-02
CGA:   6    -0.343188338059E+03   -0.11659E+00   -0.11770E+00  7488   0.187E+01-0.236E-01
CGA:   7    -0.343245426747E+03   -0.57089E-01   -0.57029E-01  7488   0.686E+00 0.521E-03
CGA:   8    -0.343268020394E+03   -0.22594E-01   -0.22588E-01  7488   0.182E+00 0.100E-03
CGA:   9    -0.343278903228E+03   -0.10883E-01   -0.10885E-01  7488   0.216E+00-0.161E-03
CGA:  10    -0.343286978824E+03   -0.80756E-02   -0.80820E-02  7488   0.695E-01 0.130E-03
CGA:  11    -0.343290232616E+03   -0.32538E-02   -0.32538E-02  7488   0.643E-01 0.119E-04
CGA:  12    -0.343292854501E+03   -0.26219E-02   -0.26241E-02  7488   0.256E-01 0.102E-03
CGA:  13    -0.343293751802E+03   -0.89730E-03   -0.89717E-03  7488   0.112E-01 0.122E-05
CGA:  14    -0.343294833110E+03   -0.10813E-02   -0.10804E-02  7488   0.244E-01 0.206E-04
CGA:  15    -0.343295627238E+03   -0.79413E-03   -0.79479E-03  7488   0.472E-02-0.135E-05
CGA:  16    -0.343295776020E+03   -0.14878E-03   -0.14880E-03  7488   0.227E-02 0.189E-07
CGA:  17    -0.343295998589E+03   -0.22257E-03   -0.22239E-03  7488   0.455E-02 0.380E-05
CGA:  18    -0.343296166134E+03   -0.16755E-03   -0.16766E-03  7488   0.135E-02 0.142E-05
CGA:  19    -0.343296219364E+03   -0.53229E-04   -0.53239E-04  7488   0.921E-03 0.121E-06
CGA:  20    -0.343296265798E+03   -0.46435E-04   -0.46434E-04  7488   0.780E-03-0.101E-06
CGA:  21    -0.343296304989E+03   -0.39191E-04   -0.39191E-04  7488   0.460E-03 0.669E-07
CGA:  22    -0.343296336561E+03   -0.31571E-04   -0.31555E-04  7488   0.742E-03 0.637E-06
CGA:  23    -0.343296365392E+03   -0.28832E-04   -0.28842E-04  7488   0.253E-03 0.244E-06
CGA:  24    -0.343296375935E+03   -0.10542E-04   -0.10541E-04  7488   0.146E-03-0.441E-06
CGA:  25    -0.343296384761E+03   -0.88261E-05   -0.88294E-05  7488   0.229E-03-0.455E-06
CGA:  26    -0.343296400449E+03   -0.15688E-04   -0.15681E-04  7488   0.114E-03 0.216E-06
CGA:  27    -0.343296403372E+03   -0.29227E-05   -0.29321E-05  7488   0.394E-04 0.224E-06
  10 F= -.34329640E+03 E0= -.34327603E+03  d E =0.869465E-02  mag=    20.0000
       N       E                     dE             d eps       ncg     rms          ort
SDA:   1    -0.342800674468E+03    0.49573E+00    0.00000E+00  7488   0.250E+01 0.000E+00
CGA:   2    -0.342907634496E+03   -0.10696E+00   -0.10733E+00  7488   0.259E+01 0.154E-01
CGA:   3    -0.343067075299E+03   -0.15944E+00   -0.15925E+00  7488   0.301E+01 0.118E-01
CGA:   4    -0.343183462231E+03   -0.11639E+00   -0.11630E+00  7488   0.101E+01-0.144E-02
CGA:   5    -0.343218124832E+03   -0.34663E-01   -0.34732E-01  7488   0.701E+00 0.468E-03
CGA:   6    -0.343279627945E+03   -0.61503E-01   -0.61582E-01  7488   0.457E+00-0.198E-02
CGA:   7    -0.343299439981E+03   -0.19812E-01   -0.19809E-01  7488   0.813E-01-0.121E-03
CGA:   8    -0.343305255843E+03   -0.58159E-02   -0.58297E-02  7488   0.102E+00-0.511E-03
CGA:   9    -0.343309907612E+03   -0.46518E-02   -0.46528E-02  7488   0.455E-01 0.710E-04
CGA:  10    -0.343311545227E+03   -0.16376E-02   -0.16401E-02  7488   0.162E-01 0.178E-04
CGA:  11    -0.343312520313E+03   -0.97509E-03   -0.97531E-03  7488   0.182E-01-0.160E-04
CGA:  12    -0.343313061187E+03   -0.54087E-03   -0.54092E-03  7488   0.740E-02-0.246E-05
CGA:  13    -0.343313575383E+03   -0.51420E-03   -0.51399E-03  7488   0.714E-02 0.868E-05
CGA:  14    -0.343313979929E+03   -0.40455E-03   -0.40447E-03  7488   0.189E-02 0.929E-05
CGA:  15    -0.343314047148E+03   -0.67218E-04   -0.67235E-04  7488   0.125E-02 0.110E-05
CGA:  16    -0.343314195220E+03   -0.14807E-03   -0.14786E-03  7488   0.185E-02 0.329E-05
CGA:  17    -0.343314265015E+03   -0.69796E-04   -0.69834E-04  7488   0.376E-03 0.185E-05
CGA:  18    -0.343314291072E+03   -0.26057E-04   -0.26029E-04  7488   0.401E-03 0.163E-05
CGA:  19    -0.343314323403E+03   -0.32331E-04   -0.32293E-04  7488   0.639E-03 0.118E-05
CGA:  20    -0.343314347212E+03   -0.23808E-04   -0.23817E-04  7488   0.247E-03 0.295E-06
CGA:  21    -0.343314359121E+03   -0.11910E-04   -0.11911E-04  7488   0.279E-03 0.151E-06
CGA:  22    -0.343314370918E+03   -0.11797E-04   -0.11804E-04  7488   0.128E-03 0.501E-06
CGA:  23    -0.343314379294E+03   -0.83762E-05   -0.83640E-05  7488   0.121E-03 0.949E-06
CGA:  24    -0.343314391334E+03   -0.12040E-04   -0.12013E-04  7488   0.816E-04 0.547E-06
CGA:  25    -0.343314393787E+03   -0.24535E-05   -0.24552E-05  7488   0.302E-04-0.196E-07
  11 F= -.34331439E+03 E0= -.34329397E+03  d E =-.179904E-01  mag=    20.0000
       N       E                     dE             d eps       ncg     rms          ort
SDA:   1    -0.343227805545E+03    0.86586E-01    0.00000E+00  7488   0.471E+00 0.000E+00
CGA:   2    -0.343243554525E+03   -0.15749E-01   -0.15794E-01  7488   0.412E+00-0.332E-03
CGA:   3    -0.343273367126E+03   -0.29813E-01   -0.29776E-01  7488   0.632E+00 0.163E-02
CGA:   4    -0.343299660757E+03   -0.26294E-01   -0.26276E-01  7488   0.162E+00-0.164E-03
CGA:   5    -0.343304932923E+03   -0.52722E-02   -0.52694E-02  7488   0.899E-01 0.387E-04
CGA:   6    -0.343313471027E+03   -0.85381E-02   -0.85383E-02  7488   0.907E-01-0.458E-05
CGA:   7    -0.343316862574E+03   -0.33915E-02   -0.33893E-02  7488   0.124E-01 0.683E-05
CGA:   8    -0.343317536541E+03   -0.67397E-03   -0.67398E-03  7488   0.153E-01 0.513E-05
CGA:   9    -0.343318181665E+03   -0.64512E-03   -0.64510E-03  7488   0.101E-01-0.473E-05
CGA:  10    -0.343318544369E+03   -0.36270E-03   -0.36264E-03  7488   0.303E-02-0.548E-05
CGA:  11    -0.343318736554E+03   -0.19219E-03   -0.19226E-03  7488   0.243E-02-0.723E-05
CGA:  12    -0.343318831452E+03   -0.94897E-04   -0.94865E-04  7488   0.128E-02-0.228E-05
CGA:  13    -0.343318904259E+03   -0.72807E-04   -0.72814E-04  7488   0.107E-02-0.205E-05
CGA:  14    -0.343318967161E+03   -0.62902E-04   -0.62911E-04  7488   0.950E-03-0.202E-05
CGA:  15    -0.343318990587E+03   -0.23427E-04   -0.23402E-04  7488   0.192E-03-0.100E-05
CGA:  16    -0.343319006254E+03   -0.15667E-04   -0.15676E-04  7488   0.310E-03-0.383E-06
CGA:  17    -0.343319035080E+03   -0.28826E-04   -0.28789E-04  7488   0.186E-03 0.892E-06
CGA:  18    -0.343319040017E+03   -0.49371E-05   -0.49405E-05  7488   0.774E-04 0.122E-06
  12 F= -.34331904E+03 E0= -.34329862E+03  d E =-.464623E-02  mag=    20.0000
       N       E                     dE             d eps       ncg     rms          ort
SDA:   1    -0.341006780597E+03    0.23123E+01    0.00000E+00  7488   0.750E+01 0.000E+00
CGA:   2    -0.341477553593E+03   -0.47077E+00   -0.47104E+00  7488   0.203E+02-0.211E-01
CGA:   3    -0.342744209236E+03   -0.12667E+01   -0.12680E+01  7488   0.389E+01-0.135E+00
CGA:   4    -0.342903096713E+03   -0.15889E+00   -0.15682E+00  7488   0.346E+01-0.994E-02
CGA:   5    -0.343155028027E+03   -0.25193E+00   -0.25235E+00  7488   0.319E+01-0.182E-01
CGA:   6    -0.343270170355E+03   -0.11514E+00   -0.11525E+00  7488   0.489E+00 0.416E-03
CGA:   7    -0.343293527787E+03   -0.23357E-01   -0.23385E-01  7488   0.424E+00 0.120E-02
CGA:   8    -0.343312908708E+03   -0.19381E-01   -0.19407E-01  7488   0.406E+00 0.841E-03
CGA:   9    -0.343326989754E+03   -0.14081E-01   -0.14097E-01  7488   0.113E+00-0.875E-04
CGA:  10    -0.343333454702E+03   -0.64649E-02   -0.64646E-02  7488   0.644E-01 0.397E-04
CGA:  11    -0.343337509771E+03   -0.40551E-02   -0.40584E-02  7488   0.415E-01-0.248E-03
CGA:  12    -0.343338950501E+03   -0.14407E-02   -0.14445E-02  7488   0.379E-01-0.102E-04
CGA:  13    -0.343341475087E+03   -0.25246E-02   -0.25230E-02  7488   0.168E-01 0.799E-04
CGA:  14    -0.343341957066E+03   -0.48198E-03   -0.48312E-03  7488   0.620E-02-0.188E-04
CGA:  15    -0.343342432028E+03   -0.47496E-03   -0.47452E-03  7488   0.112E-01 0.147E-04
CGA:  16    -0.343343211858E+03   -0.77983E-03   -0.77886E-03  7488   0.508E-02 0.462E-04
CGA:  17    -0.343343341793E+03   -0.12993E-03   -0.13006E-03  7488   0.228E-02-0.261E-05
CGA:  18    -0.343343527945E+03   -0.18615E-03   -0.18587E-03  7488   0.378E-02 0.783E-05
CGA:  19    -0.343343785477E+03   -0.25753E-03   -0.25741E-03  7488   0.227E-02 0.754E-05
CGA:  20    -0.343343908687E+03   -0.12321E-03   -0.12322E-03  7488   0.246E-02 0.563E-05
CGA:  21    -0.343343999400E+03   -0.90713E-04   -0.90743E-04  7488   0.121E-02 0.149E-05
CGA:  22    -0.343344060492E+03   -0.61092E-04   -0.61100E-04  7488   0.865E-03 0.103E-05
CGA:  23    -0.343344120096E+03   -0.59604E-04   -0.59559E-04  7488   0.138E-02 0.273E-05
CGA:  24    -0.343344190516E+03   -0.70420E-04   -0.70442E-04  7488   0.489E-03 0.457E-05
CGA:  25    -0.343344207460E+03   -0.16944E-04   -0.16977E-04  7488   0.218E-03 0.135E-05
CGA:  26    -0.343344218649E+03   -0.11189E-04   -0.11192E-04  7488   0.343E-03 0.924E-06
CGA:  27    -0.343344248167E+03   -0.29518E-04   -0.29433E-04  7488   0.154E-03 0.246E-05
CGA:  28    -0.343344254458E+03   -0.62910E-05   -0.62951E-05  7488   0.845E-04 0.407E-07
  13 F= -.34334425E+03 E0= -.34332400E+03  d E =-.252144E-01  mag=    20.0000
       N       E                     dE             d eps       ncg     rms          ort
SDA:   1    -0.338394269643E+03    0.49500E+01    0.00000E+00  7488   0.163E+02 0.000E+00
CGA:   2    -0.339468685230E+03   -0.10744E+01   -0.10936E+01  7488   0.383E+02-0.107E+01
CGA:   3    -0.341665463380E+03   -0.21968E+01   -0.22063E+01  7488   0.263E+02-0.961E+00
CGA:   4    -0.342353572176E+03   -0.68811E+00   -0.63661E+00  7488   0.684E+01 0.150E+01
CGA:   5    -0.342625332287E+03   -0.27176E+00   -0.27142E+00  7488   0.590E+01 0.382E-02
CGA:   6    -0.343088675185E+03   -0.46334E+00   -0.46711E+00  7488   0.597E+01-0.124E+00
CGA:   7    -0.343220139201E+03   -0.13146E+00   -0.13150E+00  7488   0.156E+01 0.911E-02
CGA:   8    -0.343260281832E+03   -0.40143E-01   -0.41214E-01  7488   0.522E+00-0.197E-01
CGA:   9    -0.343313786444E+03   -0.53505E-01   -0.53329E-01  7488   0.851E+00 0.328E-02
CGA:  10    -0.343338138601E+03   -0.24352E-01   -0.24457E-01  7488   0.289E+00-0.129E-02
CGA:  11    -0.343345409689E+03   -0.72711E-02   -0.73844E-02  7488   0.871E-01-0.228E-02
CGA:  12    -0.343352613298E+03   -0.72036E-02   -0.71263E-02  7488   0.199E+00 0.217E-02
CGA:  13    -0.343361544968E+03   -0.89317E-02   -0.89240E-02  7488   0.424E-01-0.291E-03
CGA:  14    -0.343362887255E+03   -0.13423E-02   -0.13447E-02  7488   0.156E-01-0.279E-04
CGA:  15    -0.343364390725E+03   -0.15035E-02   -0.14919E-02  7488   0.399E-01 0.247E-03
CGA:  16    -0.343365735773E+03   -0.13450E-02   -0.13460E-02  7488   0.158E-01 0.122E-05
CGA:  17    -0.343366464409E+03   -0.72864E-03   -0.72952E-03  7488   0.630E-02 0.522E-04
CGA:  18    -0.343366896357E+03   -0.43195E-03   -0.43126E-03  7488   0.436E-02 0.302E-04
CGA:  19    -0.343367131467E+03   -0.23511E-03   -0.23509E-03  7488   0.496E-02 0.200E-04
CGA:  20    -0.343367498426E+03   -0.36696E-03   -0.36725E-03  7488   0.654E-02-0.109E-04
CGA:  21    -0.343367783905E+03   -0.28548E-03   -0.28612E-03  7488   0.270E-02 0.195E-04
CGA:  22    -0.343367856192E+03   -0.72287E-04   -0.72517E-04  7488   0.112E-02-0.195E-05
CGA:  23    -0.343367970366E+03   -0.11417E-03   -0.11366E-03  7488   0.249E-02 0.968E-05
CGA:  24    -0.343368146816E+03   -0.17645E-03   -0.17622E-03  7488   0.565E-03 0.131E-04
CGA:  25    -0.343368171576E+03   -0.24761E-04   -0.24779E-04  7488   0.499E-03 0.776E-06
CGA:  26    -0.343368203748E+03   -0.32172E-04   -0.32145E-04  7488   0.820E-03 0.228E-05
CGA:  27    -0.343368248189E+03   -0.44440E-04   -0.44447E-04  7488   0.437E-03 0.409E-05
CGA:  28    -0.343368261898E+03   -0.13709E-04   -0.13728E-04  7488   0.180E-03 0.214E-06
CGA:  29    -0.343368274793E+03   -0.12896E-04   -0.12904E-04  7488   0.199E-03-0.751E-06
CGA:  30    -0.343368290320E+03   -0.15527E-04   -0.15533E-04  7488   0.165E-03-0.536E-06
CGA:  31    -0.343368298270E+03   -0.79502E-05   -0.79465E-05  7488   0.173E-03-0.697E-06
  14 F= -.34336830E+03 E0= -.34334820E+03  d E =-.240438E-01  mag=    20.0000
       N       E                     dE             d eps       ncg     rms          ort
SDA:   1    -0.342713763610E+03    0.65453E+00    0.00000E+00  7488   0.219E+01 0.000E+00
CGA:   2    -0.342877987525E+03   -0.16422E+00   -0.16345E+00  7488   0.531E+01 0.301E-01
CGA:   3    -0.343111380693E+03   -0.23339E+00   -0.23346E+00  7488   0.274E+01 0.146E-02
CGA:   4    -0.343218584189E+03   -0.10720E+00   -0.10698E+00  7488   0.713E+00-0.112E-02
CGA:   5    -0.343313879683E+03   -0.95295E-01   -0.95719E-01  7488   0.824E+00-0.590E-02
CGA:   6    -0.343336668465E+03   -0.22789E-01   -0.22847E-01  7488   0.271E+00-0.120E-02
CGA:   7    -0.343345374069E+03   -0.87056E-02   -0.87090E-02  7488   0.135E+00 0.226E-04
CGA:   8    -0.343355794462E+03   -0.10420E-01   -0.10433E-01  7488   0.723E-01-0.435E-03
CGA:   9    -0.343358692254E+03   -0.28978E-02   -0.28965E-02  7488   0.451E-01 0.120E-04
CGA:  10    -0.343360852177E+03   -0.21599E-02   -0.21617E-02  7488   0.330E-01 0.859E-04
CGA:  11    -0.343361896574E+03   -0.10444E-02   -0.10452E-02  7488   0.972E-02 0.197E-06
CGA:  12    -0.343362536285E+03   -0.63971E-03   -0.63952E-03  7488   0.164E-01 0.148E-04
CGA:  13    -0.343363372779E+03   -0.83649E-03   -0.83653E-03  7488   0.570E-02 0.981E-05
CGA:  14    -0.343363580788E+03   -0.20801E-03   -0.20826E-03  7488   0.186E-02 0.563E-05
CGA:  15    -0.343363674187E+03   -0.93399E-04   -0.93413E-04  7488   0.298E-02 0.328E-05
CGA:  16    -0.343363878964E+03   -0.20478E-03   -0.20467E-03  7488   0.177E-02 0.577E-05
CGA:  17    -0.343363951063E+03   -0.72099E-04   -0.72110E-04  7488   0.491E-03 0.407E-06
CGA:  18    -0.343363981897E+03   -0.30835E-04   -0.30832E-04  7488   0.969E-03 0.119E-06
CGA:  19    -0.343364029516E+03   -0.47619E-04   -0.47620E-04  7488   0.460E-03 0.179E-06
CGA:  20    -0.343364061320E+03   -0.31804E-04   -0.31810E-04  7488   0.530E-03-0.493E-06
CGA:  21    -0.343364086854E+03   -0.25534E-04   -0.25528E-04  7488   0.348E-03-0.915E-06
CGA:  22    -0.343364099055E+03   -0.12201E-04   -0.12192E-04  7488   0.161E-03-0.579E-06
CGA:  23    -0.343364112069E+03   -0.13014E-04   -0.13039E-04  7488   0.348E-03-0.952E-06
CGA:  24    -0.343364127632E+03   -0.15563E-04   -0.15548E-04  7488   0.110E-03-0.165E-05
CGA:  25    -0.343364131761E+03   -0.41290E-05   -0.41191E-05  7488   0.535E-04-0.639E-06
  15 F= -.34336413E+03 E0= -.34334404E+03  d E =0.416651E-02  mag=    20.0000
       N       E                     dE             d eps       ncg     rms          ort
SDA:   1    -0.343332479787E+03    0.31648E-01    0.00000E+00  7488   0.894E+00 0.000E+00
CGA:   2    -0.343346155793E+03   -0.13676E-01   -0.13629E-01  7488   0.629E-01 0.229E-02
CGA:   3    -0.343350945803E+03   -0.47900E-02   -0.47952E-02  7488   0.924E-01-0.171E-03
CGA:   4    -0.343357876656E+03   -0.69309E-02   -0.69285E-02  7488   0.609E-01 0.996E-04
CGA:   5    -0.343359736598E+03   -0.18599E-02   -0.18647E-02  7488   0.207E-01-0.459E-04
CGA:   6    -0.343361501544E+03   -0.17649E-02   -0.17650E-02  7488   0.235E-01 0.123E-05
CGA:   7    -0.343362791131E+03   -0.12896E-02   -0.12896E-02  7488   0.449E-02-0.657E-05
CGA:   8    -0.343362944002E+03   -0.15287E-03   -0.15285E-03  7488   0.326E-02 0.803E-06
CGA:   9    -0.343363121685E+03   -0.17768E-03   -0.17768E-03  7488   0.360E-02-0.239E-06
CGA:  10    -0.343363284398E+03   -0.16271E-03   -0.16271E-03  7488   0.676E-03-0.981E-06
CGA:  11    -0.343363306892E+03   -0.22494E-04   -0.22478E-04  7488   0.373E-03-0.649E-06
CGA:  12    -0.343363342699E+03   -0.35807E-04   -0.35830E-04  7488   0.559E-03-0.483E-06
CGA:  13    -0.343363366567E+03   -0.23868E-04   -0.23870E-04  7488   0.182E-03 0.117E-06
CGA:  14    -0.343363373058E+03   -0.64913E-05   -0.64960E-05  7488   0.139E-03 0.202E-06
  16 F= -.34336337E+03 E0= -.34334330E+03  d E =0.758703E-03  mag=    20.0000
       N       E                     dE             d eps       ncg     rms          ort
SDA:   1    -0.343286484837E+03    0.76882E-01    0.00000E+00  7488   0.496E+00 0.000E+00
CGA:   2    -0.343298767116E+03   -0.12282E-01   -0.12326E-01  7488   0.268E+00-0.970E-03
CGA:   3    -0.343321761559E+03   -0.22994E-01   -0.22949E-01  7488   0.533E+00 0.124E-02
CGA:   4    -0.343348162977E+03   -0.26401E-01   -0.26391E-01  7488   0.115E+00-0.919E-03
CGA:   5    -0.343352045089E+03   -0.38821E-02   -0.38764E-02  7488   0.676E-01 0.478E-04
CGA:   6    -0.343357693397E+03   -0.56483E-02   -0.56503E-02  7488   0.577E-01-0.505E-04
CGA:   7    -0.343359967023E+03   -0.22736E-02   -0.22746E-02  7488   0.158E-01 0.152E-04
CGA:   8    -0.343360634920E+03   -0.66790E-03   -0.66798E-03  7488   0.130E-01 0.442E-05
CGA:   9    -0.343361072726E+03   -0.43781E-03   -0.43792E-03  7488   0.496E-02-0.844E-06
CGA:  10    -0.343361341826E+03   -0.26910E-03   -0.26912E-03  7488   0.314E-02-0.527E-05
CGA:  11    -0.343361584566E+03   -0.24274E-03   -0.24289E-03  7488   0.227E-02-0.536E-05
CGA:  12    -0.343361656080E+03   -0.71514E-04   -0.71557E-04  7488   0.733E-03-0.368E-06
CGA:  13    -0.343361686561E+03   -0.30481E-04   -0.30483E-04  7488   0.658E-03 0.550E-08
CGA:  14    -0.343361738480E+03   -0.51919E-04   -0.51924E-04  7488   0.873E-03-0.261E-06
CGA:  15    -0.343361762005E+03   -0.23526E-04   -0.23532E-04  7488   0.993E-04 0.132E-06
CGA:  16    -0.343361774508E+03   -0.12503E-04   -0.12480E-04  7488   0.200E-03 0.291E-06
CGA:  17    -0.343361784432E+03   -0.99239E-05   -0.99224E-05  7488   0.155E-03-0.296E-06
  17 F= -.34336178E+03 E0= -.34334172E+03  d E =0.158863E-02  mag=    20.0000
       N       E                     dE             d eps       ncg     rms          ort
SDA:   1    -0.341553113672E+03    0.18087E+01    0.00000E+00  7488   0.557E+01 0.000E+00
CGA:   2    -0.341931435036E+03   -0.37832E+00   -0.37820E+00  7488   0.144E+02 0.489E-02
CGA:   3    -0.342824058974E+03   -0.89262E+00   -0.89343E+00  7488   0.700E+01-0.820E-01
CGA:   4    -0.343018846470E+03   -0.19479E+00   -0.19855E+00  7488   0.249E+01-0.626E-01
CGA:   5    -0.343143535872E+03   -0.12469E+00   -0.12482E+00  7488   0.221E+01 0.202E-01
CGA:   6    -0.343297659387E+03   -0.15412E+00   -0.15463E+00  7488   0.742E+00-0.238E-01
CGA:   7    -0.343318097242E+03   -0.20438E-01   -0.20641E-01  7488   0.359E+00-0.306E-02
CGA:   8    -0.343333013651E+03   -0.14916E-01   -0.14900E-01  7488   0.273E+00-0.299E-03
CGA:   9    -0.343346521632E+03   -0.13508E-01   -0.13514E-01  7488   0.164E+00 0.956E-03
CGA:  10    -0.343352523020E+03   -0.60014E-02   -0.60103E-02  7488   0.719E-01 0.784E-04
CGA:  11    -0.343357068580E+03   -0.45456E-02   -0.45401E-02  7488   0.367E-01 0.314E-03
CGA:  12    -0.343358797779E+03   -0.17292E-02   -0.17306E-02  7488   0.218E-01 0.115E-03
CGA:  13    -0.343360059702E+03   -0.12619E-02   -0.12618E-02  7488   0.287E-01 0.393E-05
CGA:  14    -0.343361269396E+03   -0.12097E-02   -0.12121E-02  7488   0.111E-01 0.528E-04
CGA:  15    -0.343361555018E+03   -0.28562E-03   -0.28559E-03  7488   0.320E-02-0.247E-05
CGA:  16    -0.343361812320E+03   -0.25730E-03   -0.25716E-03  7488   0.582E-02 0.184E-05
CGA:  17    -0.343362205834E+03   -0.39351E-03   -0.39274E-03  7488   0.189E-02 0.360E-04
CGA:  18    -0.343362280302E+03   -0.74468E-04   -0.74502E-04  7488   0.944E-03 0.111E-05
CGA:  19    -0.343362353554E+03   -0.73253E-04   -0.73141E-04  7488   0.156E-02 0.341E-05
CGA:  20    -0.343362440540E+03   -0.86985E-04   -0.86971E-04  7488   0.112E-02 0.358E-05
CGA:  21    -0.343362484631E+03   -0.44092E-04   -0.44113E-04  7488   0.823E-03 0.819E-06
CGA:  22    -0.343362519167E+03   -0.34536E-04   -0.34586E-04  7488   0.457E-03 0.205E-05
CGA:  23    -0.343362545258E+03   -0.26090E-04   -0.26082E-04  7488   0.240E-03 0.133E-05
CGA:  24    -0.343362566165E+03   -0.20907E-04   -0.20815E-04  7488   0.486E-03 0.241E-05
CGA:  25    -0.343362590004E+03   -0.23839E-04   -0.23852E-04  7488   0.991E-04 0.217E-05
CGA:  26    -0.343362594617E+03   -0.46133E-05   -0.46183E-05  7488   0.769E-04 0.392E-06
  18 F= -.34336259E+03 E0= -.34334262E+03  d E =-.810185E-03  mag=    20.0000
       N       E                     dE             d eps       ncg     rms          ort
SDA:   1    -0.339790029624E+03    0.35726E+01    0.00000E+00  7488   0.102E+02 0.000E+00
CGA:   2    -0.340953029075E+03   -0.11630E+01   -0.11952E+01  7488   0.371E+02-0.516E+00
CGA:   3    -0.342296347074E+03   -0.13433E+01   -0.13365E+01  7488   0.126E+02 0.150E+00
CGA:   4    -0.342669545683E+03   -0.37320E+00   -0.38963E+00  7488   0.498E+01-0.122E+00
CGA:   5    -0.342917455938E+03   -0.24791E+00   -0.24796E+00  7488   0.580E+01 0.675E-02
CGA:   6    -0.343259506723E+03   -0.34205E+00   -0.34272E+00  7488   0.733E+00-0.886E-01
CGA:   7    -0.343297696564E+03   -0.38190E-01   -0.38211E-01  7488   0.561E+00 0.512E-02
CGA:   8    -0.343345722363E+03   -0.48026E-01   -0.48050E-01  7488   0.412E+00-0.658E-03
CGA:   9    -0.343355565625E+03   -0.98433E-02   -0.98712E-02  7488   0.126E+00-0.705E-03
CGA:  10    -0.343361575418E+03   -0.60098E-02   -0.60165E-02  7488   0.120E+00 0.350E-03
CGA:  11    -0.343369080973E+03   -0.75056E-02   -0.74980E-02  7488   0.593E-01 0.606E-03
CGA:  12    -0.343371608879E+03   -0.25279E-02   -0.25290E-02  7488   0.460E-01 0.261E-04
CGA:  13    -0.343373945464E+03   -0.23366E-02   -0.23368E-02  7488   0.168E-01 0.233E-04
CGA:  14    -0.343374724502E+03   -0.77904E-03   -0.77946E-03  7488   0.996E-02 0.162E-04
CGA:  15    -0.343375298804E+03   -0.57430E-03   -0.57424E-03  7488   0.183E-01 0.964E-05
CGA:  16    -0.343376168875E+03   -0.87007E-03   -0.87065E-03  7488   0.353E-02 0.400E-04
CGA:  17    -0.343376329021E+03   -0.16015E-03   -0.16025E-03  7488   0.203E-02 0.518E-05
CGA:  18    -0.343376609138E+03   -0.28012E-03   -0.27915E-03  7488   0.477E-02 0.118E-04
CGA:  19    -0.343376764918E+03   -0.15578E-03   -0.15617E-03  7488   0.180E-02 0.386E-06
CGA:  20    -0.343376830649E+03   -0.65731E-04   -0.65836E-04  7488   0.102E-02 0.194E-05
CGA:  21    -0.343376907856E+03   -0.77207E-04   -0.77128E-04  7488   0.143E-02 0.331E-05
CGA:  22    -0.343376968130E+03   -0.60274E-04   -0.60342E-04  7488   0.723E-03 0.306E-05
CGA:  23    -0.343377021903E+03   -0.53773E-04   -0.53712E-04  7488   0.617E-03 0.313E-05
CGA:  24    -0.343377051515E+03   -0.29613E-04   -0.29638E-04  7488   0.289E-03 0.252E-05
CGA:  25    -0.343377061377E+03   -0.98619E-05   -0.98889E-05  7488   0.246E-03 0.953E-06
CGA:  26    -0.343377083402E+03   -0.22025E-04   -0.21919E-04  7488   0.286E-03 0.300E-05
CGA:  27    -0.343377095916E+03   -0.12514E-04   -0.12536E-04  7488   0.516E-04 0.147E-05
CGA:  28    -0.343377100780E+03   -0.48637E-05   -0.48572E-05  7488   0.128E-03 0.737E-07
  19 F= -.34337710E+03 E0= -.34335734E+03  d E =-.145062E-01  mag=    20.0000
       N       E                     dE             d eps       ncg     rms          ort
SDA:   1    -0.343187456650E+03    0.18964E+00    0.00000E+00  7488   0.111E+01 0.000E+00
CGA:   2    -0.343222306443E+03   -0.34850E-01   -0.34972E-01  7488   0.851E+00-0.164E-02
CGA:   3    -0.343281932056E+03   -0.59626E-01   -0.59664E-01  7488   0.129E+01-0.178E-02
CGA:   4    -0.343336356714E+03   -0.54425E-01   -0.54486E-01  7488   0.318E+00 0.710E-03
CGA:   5    -0.343350584489E+03   -0.14228E-01   -0.14232E-01  7488   0.271E+00 0.130E-03
CGA:   6    -0.343368500858E+03   -0.17916E-01   -0.17924E-01  7488   0.184E+00-0.460E-03
CGA:   7    -0.343375703356E+03   -0.72025E-02   -0.72228E-02  7488   0.520E-01 0.125E-03
CGA:   8    -0.343379763591E+03   -0.40602E-02   -0.40448E-02  7488   0.214E-01 0.540E-03
CGA:   9    -0.343380761006E+03   -0.99742E-03   -0.99690E-03  7488   0.133E-01-0.115E-04
CGA:  10    -0.343381617981E+03   -0.85698E-03   -0.85690E-03  7488   0.175E-01 0.726E-05
CGA:  11    -0.343382108630E+03   -0.49065E-03   -0.49088E-03  7488   0.240E-02-0.200E-05
CGA:  12    -0.343382235554E+03   -0.12692E-03   -0.12693E-03  7488   0.332E-02 0.249E-06
CGA:  13    -0.343382475710E+03   -0.24016E-03   -0.24013E-03  7488   0.234E-02 0.215E-05
CGA:  14    -0.343382571395E+03   -0.95685E-04   -0.95778E-04  7488   0.474E-03 0.324E-05
CGA:  15    -0.343382606876E+03   -0.35481E-04   -0.35451E-04  7488   0.587E-03 0.145E-05
CGA:  16    -0.343382643160E+03   -0.36284E-04   -0.36279E-04  7488   0.586E-03 0.756E-06
CGA:  17    -0.343382661475E+03   -0.18315E-04   -0.18329E-04  7488   0.276E-03 0.407E-06
CGA:  18    -0.343382679374E+03   -0.17899E-04   -0.17886E-04  7488   0.190E-03 0.116E-05
CGA:  19    -0.343382686725E+03   -0.73502E-05   -0.73588E-05  7488   0.889E-04 0.424E-06
  20 F= -.34338269E+03 E0= -.34336291E+03  d E =-.558594E-02  mag=    20.0000
       N       E                     dE             d eps       ncg     rms          ort
SDA:   1    -0.343271281516E+03    0.11140E+00    0.00000E+00  7488   0.113E+01 0.000E+00
CGA:   2    -0.343296837383E+03   -0.25556E-01   -0.25820E-01  7488   0.319E+00-0.706E-02
CGA:   3    -0.343326035644E+03   -0.29198E-01   -0.29230E-01  7488   0.695E+00-0.741E-03
CGA:   4    -0.343353705097E+03   -0.27669E-01   -0.27707E-01  7488   0.308E+00 0.287E-03
CGA:   5    -0.343362902822E+03   -0.91977E-02   -0.92225E-02  7488   0.101E+00-0.307E-03
CGA:   6    -0.343373504428E+03   -0.10602E-01   -0.10597E-01  7488   0.123E+00 0.851E-04
CGA:   7    -0.343378288991E+03   -0.47846E-02   -0.47891E-02  7488   0.162E-01 0.435E-05
CGA:   8    -0.343379232902E+03   -0.94391E-03   -0.94388E-03  7488   0.176E-01 0.973E-05
CGA:   9    -0.343380265778E+03   -0.10329E-02   -0.10329E-02  7488   0.123E-01 0.501E-05
CGA:  10    -0.343380690703E+03   -0.42492E-03   -0.42503E-03  7488   0.230E-02-0.111E-05
CGA:  11    -0.343380780519E+03   -0.89816E-04   -0.89828E-04  7488   0.257E-02-0.104E-06
CGA:  12    -0.343380961874E+03   -0.18135E-03   -0.18133E-03  7488   0.248E-02 0.142E-05
CGA:  13    -0.343381065679E+03   -0.10381E-03   -0.10383E-03  7488   0.441E-03 0.144E-05
CGA:  14    -0.343381094501E+03   -0.28822E-04   -0.28825E-04  7488   0.521E-03-0.293E-06
CGA:  15    -0.343381119480E+03   -0.24978E-04   -0.24974E-04  7488   0.299E-03-0.675E-06
CGA:  16    -0.343381135310E+03   -0.15831E-04   -0.15830E-04  7488   0.262E-03-0.246E-06
CGA:  17    -0.343381147184E+03   -0.11873E-04   -0.11874E-04  7488   0.185E-03-0.871E-08
CGA:  18    -0.343381152731E+03   -0.55474E-05   -0.55461E-05  7488   0.452E-04-0.140E-06
  21 F= -.34338115E+03 E0= -.34336134E+03  d E =0.153399E-02  mag=    20.0000
       N       E                     dE             d eps       ncg     rms          ort
SDA:   1    -0.343295419491E+03    0.85728E-01    0.00000E+00  7488   0.568E+00 0.000E+00
CGA:   2    -0.343311146111E+03   -0.15727E-01   -0.15631E-01  7488   0.273E+00 0.180E-02
CGA:   3    -0.343340632484E+03   -0.29486E-01   -0.29657E-01  7488   0.644E+00-0.318E-02
CGA:   4    -0.343364378144E+03   -0.23746E-01   -0.23818E-01  7488   0.212E+00-0.664E-04
CGA:   5    -0.343370095464E+03   -0.57173E-02   -0.57367E-02  7488   0.701E-01-0.356E-03
CGA:   6    -0.343375452822E+03   -0.53574E-02   -0.53585E-02  7488   0.796E-01-0.352E-04
CGA:   7    -0.343379665146E+03   -0.42123E-02   -0.42115E-02  7488   0.121E-01-0.136E-03
CGA:   8    -0.343380246463E+03   -0.58132E-03   -0.58101E-03  7488   0.789E-02-0.178E-04
CGA:   9    -0.343380695070E+03   -0.44861E-03   -0.44861E-03  7488   0.117E-01-0.246E-05
CGA:  10    -0.343381106091E+03   -0.41102E-03   -0.41083E-03  7488   0.179E-02-0.970E-06
CGA:  11    -0.343381228806E+03   -0.12271E-03   -0.12277E-03  7488   0.184E-02-0.383E-05
CGA:  12    -0.343381306693E+03   -0.77887E-04   -0.77861E-04  7488   0.889E-03-0.178E-05
CGA:  13    -0.343381352502E+03   -0.45809E-04   -0.45809E-04  7488   0.804E-03-0.173E-06
CGA:  14    -0.343381397417E+03   -0.44915E-04   -0.44914E-04  7488   0.449E-03-0.100E-06
CGA:  15    -0.343381408148E+03   -0.10731E-04   -0.10728E-04  7488   0.114E-03-0.431E-06
CGA:  16    -0.343381418278E+03   -0.10131E-04   -0.10142E-04  7488   0.208E-03-0.392E-06
CGA:  17    -0.343381432215E+03   -0.13937E-04   -0.13933E-04  7488   0.646E-04 0.229E-06
CGA:  18    -0.343381434625E+03   -0.24095E-05   -0.24138E-05  7488   0.433E-04 0.178E-06
  22 F= -.34338143E+03 E0= -.34336164E+03  d E =-.281894E-03  mag=    20.0000
       N       E                     dE             d eps       ncg     rms          ort
SDA:   1    -0.334734343355E+03    0.86471E+01    0.00000E+00  7488   0.247E+02 0.000E+00
CGA:   2    -0.336751671361E+03   -0.20173E+01   -0.20305E+01  7488   0.784E+02-0.555E+00
CGA:   3    -0.341227193534E+03   -0.44755E+01   -0.45307E+01  7488   0.306E+02-0.911E+01
CGA:   4    -0.341827717852E+03   -0.60052E+00   -0.60489E+00  7488   0.101E+02-0.140E+00
CGA:   5    -0.342466816819E+03   -0.63910E+00   -0.63683E+00  7488   0.140E+02 0.150E+00
CGA:   6    -0.342930357107E+03   -0.46354E+00   -0.45320E+00  7488   0.104E+02 0.813E-01
CGA:   7    -0.343138307499E+03   -0.20795E+00   -0.20257E+00  7488   0.157E+01 0.249E+00
CGA:   8    -0.343190430280E+03   -0.52123E-01   -0.51896E-01  7488   0.133E+01 0.149E-02
CGA:   9    -0.343269551956E+03   -0.79122E-01   -0.79158E-01  7488   0.224E+01-0.268E-02
CGA:  10    -0.343319488986E+03   -0.49937E-01   -0.53161E-01  7488   0.664E+00-0.739E-01
CGA:  11    -0.343336811006E+03   -0.17322E-01   -0.17555E-01  7488   0.193E+00-0.280E-02
CGA:  12    -0.343348680220E+03   -0.11869E-01   -0.11878E-01  7488   0.322E+00-0.471E-03
CGA:  13    -0.343362456935E+03   -0.13777E-01   -0.14006E-01  7488   0.207E+00 0.161E-01
CGA:  14    -0.343368036536E+03   -0.55796E-02   -0.55816E-02  7488   0.828E-01-0.235E-04
CGA:  15    -0.343371776985E+03   -0.37404E-02   -0.37425E-02  7488   0.479E-01 0.359E-03
CGA:  16    -0.343374133232E+03   -0.23562E-02   -0.23554E-02  7488   0.253E-01 0.305E-03
CGA:  17    -0.343375577541E+03   -0.14443E-02   -0.14447E-02  7488   0.294E-01-0.265E-04
CGA:  18    -0.343377555602E+03   -0.19781E-02   -0.19570E-02  7488   0.151E-01 0.850E-03
CGA:  19    -0.343377984126E+03   -0.42852E-03   -0.43118E-03  7488   0.472E-02-0.282E-04
CGA:  20    -0.343378232002E+03   -0.24788E-03   -0.24798E-03  7488   0.756E-02-0.131E-04
CGA:  21    -0.343378906160E+03   -0.67416E-03   -0.65188E-03  7488   0.485E-02 0.528E-03
CGA:  22    -0.343379073751E+03   -0.16759E-03   -0.16761E-03  7488   0.155E-02 0.309E-05
CGA:  23    -0.343379176891E+03   -0.10314E-03   -0.10258E-03  7488   0.249E-02 0.249E-04
CGA:  24    -0.343379318664E+03   -0.14177E-03   -0.14183E-03  7488   0.180E-02-0.434E-05
CGA:  25    -0.343379382870E+03   -0.64206E-04   -0.64318E-04  7488   0.111E-02 0.223E-05
CGA:  26    -0.343379440488E+03   -0.57618E-04   -0.57606E-04  7488   0.616E-03 0.386E-05
CGA:  27    -0.343379469755E+03   -0.29267E-04   -0.29279E-04  7488   0.288E-03 0.418E-05
CGA:  28    -0.343379488993E+03   -0.19238E-04   -0.19152E-04  7488   0.476E-03 0.464E-05
CGA:  29    -0.343379515614E+03   -0.26621E-04   -0.26589E-04  7488   0.276E-03 0.635E-05
CGA:  30    -0.343379523626E+03   -0.80118E-05   -0.80466E-05  7488   0.859E-04 0.118E-05
  23 F= -.34337952E+03 E0= -.34335990E+03  d E =0.191100E-02  mag=    20.0000
       N       E                     dE             d eps       ncg     rms          ort
SDA:   1    -0.341818271197E+03    0.15612E+01    0.00000E+00  7488   0.486E+01 0.000E+00
CGA:   2    -0.342195853587E+03   -0.37758E+00   -0.38524E+00  7488   0.114E+02-0.226E+00
CGA:   3    -0.342880754282E+03   -0.68490E+00   -0.68766E+00  7488   0.839E+01-0.178E+00
CGA:   4    -0.343097133461E+03   -0.21638E+00   -0.22744E+00  7488   0.189E+01-0.176E+00
CGA:   5    -0.343184900972E+03   -0.87768E-01   -0.87677E-01  7488   0.228E+01-0.103E-01
CGA:   6    -0.343304614323E+03   -0.11971E+00   -0.11975E+00  7488   0.100E+01-0.900E-02
CGA:   7    -0.343344343148E+03   -0.39729E-01   -0.39638E-01  7488   0.277E+00-0.177E-02
CGA:   8    -0.343357517492E+03   -0.13174E-01   -0.13183E-01  7488   0.252E+00 0.166E-02
CGA:   9    -0.343366813676E+03   -0.92962E-02   -0.92885E-02  7488   0.126E+00-0.266E-04
CGA:  10    -0.343372757126E+03   -0.59435E-02   -0.59440E-02  7488   0.816E-01 0.126E-03
CGA:  11    -0.343377220288E+03   -0.44632E-02   -0.44633E-02  7488   0.586E-01 0.180E-05
CGA:  12    -0.343378981331E+03   -0.17610E-02   -0.17610E-02  7488   0.153E-01 0.127E-04
CGA:  13    -0.343379921595E+03   -0.94026E-03   -0.93966E-03  7488   0.210E-01 0.356E-04
CGA:  14    -0.343381196327E+03   -0.12747E-02   -0.12725E-02  7488   0.158E-01 0.136E-03
CGA:  15    -0.343381587968E+03   -0.39164E-03   -0.39201E-03  7488   0.226E-02-0.425E-05
CGA:  16    -0.343381816791E+03   -0.22882E-03   -0.22874E-03  7488   0.491E-02 0.129E-05
CGA:  17    -0.343382054806E+03   -0.23801E-03   -0.23805E-03  7488   0.367E-02 0.600E-05
CGA:  18    -0.343382169243E+03   -0.11444E-03   -0.11461E-03  7488   0.807E-03-0.161E-06
CGA:  19    -0.343382229918E+03   -0.60675E-04   -0.60612E-04  7488   0.113E-02 0.169E-05
CGA:  20    -0.343382280777E+03   -0.50858E-04   -0.50891E-04  7488   0.944E-03 0.208E-05
CGA:  21    -0.343382334950E+03   -0.54173E-04   -0.54168E-04  7488   0.730E-03 0.126E-06
CGA:  22    -0.343382374962E+03   -0.40012E-04   -0.40009E-04  7488   0.648E-03 0.464E-07
CGA:  23    -0.343382395557E+03   -0.20595E-04   -0.20601E-04  7488   0.174E-03-0.419E-06
CGA:  24    -0.343382409429E+03   -0.13871E-04   -0.13923E-04  7488   0.332E-03-0.205E-05
CGA:  25    -0.343382432424E+03   -0.22995E-04   -0.23051E-04  7488   0.333E-03-0.325E-05
CGA:  26    -0.343382440977E+03   -0.85532E-05   -0.85380E-05  7488   0.507E-04-0.105E-05
  24 F= -.34338244E+03 E0= -.34336278E+03  d E =-.291735E-02  mag=    20.0000
       N       E                     dE             d eps       ncg     rms          ort
SDA:   1    -0.342442111867E+03    0.94032E+00    0.00000E+00  7488   0.303E+01 0.000E+00
CGA:   2    -0.342644163197E+03   -0.20205E+00   -0.20193E+00  7488   0.693E+01 0.753E-02
CGA:   3    -0.343027862068E+03   -0.38370E+00   -0.38378E+00  7488   0.587E+01-0.223E-01
CGA:   4    -0.343225595784E+03   -0.19773E+00   -0.20171E+00  7488   0.773E+00-0.402E-02
CGA:   5    -0.343321404755E+03   -0.95809E-01   -0.96191E-01  7488   0.136E+01-0.568E-02
CGA:   6    -0.343359673550E+03   -0.38269E-01   -0.38720E-01  7488   0.406E+00-0.756E-02
CGA:   7    -0.343371127964E+03   -0.11454E-01   -0.11422E-01  7488   0.114E+00 0.544E-03
CGA:   8    -0.343378555241E+03   -0.74273E-02   -0.74264E-02  7488   0.156E+00 0.763E-04
CGA:   9    -0.343386258301E+03   -0.77031E-02   -0.77028E-02  7488   0.525E-01-0.762E-05
CGA:  10    -0.343388021974E+03   -0.17637E-02   -0.17648E-02  7488   0.145E-01 0.550E-05
CGA:  11    -0.343389696779E+03   -0.16748E-02   -0.16743E-02  7488   0.280E-01 0.817E-05
CGA:  12    -0.343390765248E+03   -0.10685E-02   -0.10683E-02  7488   0.118E-01-0.801E-05
CGA:  13    -0.343391047177E+03   -0.28193E-03   -0.28111E-03  7488   0.236E-02 0.164E-04
CGA:  14    -0.343391319320E+03   -0.27214E-03   -0.27194E-03  7488   0.464E-02 0.315E-05
CGA:  15    -0.343391571675E+03   -0.25236E-03   -0.25236E-03  7488   0.122E-02 0.156E-05
CGA:  16    -0.343391630094E+03   -0.58419E-04   -0.58416E-04  7488   0.114E-02-0.396E-06
CGA:  17    -0.343391688298E+03   -0.58204E-04   -0.58202E-04  7488   0.502E-03-0.418E-06
CGA:  18    -0.343391728847E+03   -0.40549E-04   -0.40515E-04  7488   0.108E-02 0.115E-05
CGA:  19    -0.343391772335E+03   -0.43488E-04   -0.43521E-04  7488   0.624E-03 0.140E-05
CGA:  20    -0.343391799669E+03   -0.27334E-04   -0.27337E-04  7488   0.136E-03 0.390E-06
CGA:  21    -0.343391812811E+03   -0.13141E-04   -0.13142E-04  7488   0.280E-03-0.142E-06
CGA:  22    -0.343391834793E+03   -0.21982E-04   -0.21953E-04  7488   0.186E-03 0.132E-05
CGA:  23    -0.343391840515E+03   -0.57224E-05   -0.57408E-05  7488   0.451E-04 0.547E-06
  25 F= -.34339184E+03 E0= -.34337220E+03  d E =-.939954E-02  mag=    20.0000
       N       E                     dE             d eps       ncg     rms          ort
SDA:   1    -0.342618632755E+03    0.77320E+00    0.00000E+00  7488   0.240E+01 0.000E+00
CGA:   2    -0.342781080863E+03   -0.16245E+00   -0.16246E+00  7488   0.567E+01-0.630E-03
CGA:   3    -0.343165585573E+03   -0.38450E+00   -0.38473E+00  7488   0.360E+01-0.169E-01
CGA:   4    -0.343255941258E+03   -0.90356E-01   -0.90178E-01  7488   0.852E+00 0.246E-02
CGA:   5    -0.343305674026E+03   -0.49733E-01   -0.49737E-01  7488   0.112E+01-0.206E-02
CGA:   6    -0.343369537159E+03   -0.63863E-01   -0.63864E-01  7488   0.275E+00 0.183E-02
CGA:   7    -0.343379540727E+03   -0.10004E-01   -0.10046E-01  7488   0.745E-01-0.126E-03
CGA:   8    -0.343388004103E+03   -0.84634E-02   -0.84563E-02  7488   0.115E+00 0.127E-03
CGA:   9    -0.343391073829E+03   -0.30697E-02   -0.30745E-02  7488   0.378E-01-0.111E-03
CGA:  10    -0.343392493768E+03   -0.14199E-02   -0.14161E-02  7488   0.139E-01 0.424E-05
CGA:  11    -0.343393685233E+03   -0.11915E-02   -0.11912E-02  7488   0.182E-01 0.629E-05
CGA:  12    -0.343394347671E+03   -0.66244E-03   -0.66295E-03  7488   0.654E-02-0.540E-05
CGA:  13    -0.343394730994E+03   -0.38332E-03   -0.38332E-03  7488   0.451E-02-0.201E-05
CGA:  14    -0.343394918298E+03   -0.18730E-03   -0.18730E-03  7488   0.198E-02-0.321E-05
CGA:  15    -0.343394988433E+03   -0.70134E-04   -0.70107E-04  7488   0.180E-02-0.104E-05
CGA:  16    -0.343395162611E+03   -0.17418E-03   -0.17406E-03  7488   0.122E-02 0.206E-05
CGA:  17    -0.343395207849E+03   -0.45238E-04   -0.45281E-04  7488   0.300E-03 0.100E-05
CGA:  18    -0.343395229524E+03   -0.21675E-04   -0.21668E-04  7488   0.661E-03-0.449E-08
CGA:  19    -0.343395271397E+03   -0.41873E-04   -0.41868E-04  7488   0.569E-03 0.384E-06
CGA:  20    -0.343395290209E+03   -0.18812E-04   -0.18846E-04  7488   0.176E-03 0.549E-06
CGA:  21    -0.343395298008E+03   -0.77994E-05   -0.78110E-05  7488   0.145E-03 0.698E-06
CGA:  22    -0.343395308802E+03   -0.10794E-04   -0.10766E-04  7488   0.130E-03 0.118E-05
CGA:  23    -0.343395316842E+03   -0.80401E-05   -0.80373E-05  7488   0.101E-03 0.382E-06
  26 F= -.34339532E+03 E0= -.34337571E+03  d E =-.347633E-02  mag=    20.0000
       N       E                     dE             d eps       ncg     rms          ort
SDA:   1    -0.342914957716E+03    0.48035E+00    0.00000E+00  7488   0.195E+01 0.000E+00
CGA:   2    -0.342980993358E+03   -0.66036E-01   -0.66139E-01  7488   0.233E+01-0.113E-02
CGA:   3    -0.343244069199E+03   -0.26308E+00   -0.26459E+00  7488   0.200E+01-0.265E-01
CGA:   4    -0.343309683330E+03   -0.65614E-01   -0.67437E-01  7488   0.570E+00-0.146E-01
CGA:   5    -0.343339695032E+03   -0.30012E-01   -0.30014E-01  7488   0.653E+00 0.376E-03
CGA:   6    -0.343378715381E+03   -0.39020E-01   -0.39019E-01  7488   0.129E+00 0.209E-03
CGA:   7    -0.343384160301E+03   -0.54449E-02   -0.54434E-02  7488   0.904E-01-0.148E-04
CGA:   8    -0.343387836644E+03   -0.36763E-02   -0.36797E-02  7488   0.713E-01 0.388E-04
CGA:   9    -0.343390842306E+03   -0.30057E-02   -0.30086E-02  7488   0.247E-01 0.483E-04
CGA:  10    -0.343392383390E+03   -0.15411E-02   -0.15411E-02  7488   0.204E-01-0.721E-06
CGA:  11    -0.343393231880E+03   -0.84849E-03   -0.84803E-03  7488   0.745E-02-0.778E-05
CGA:  12    -0.343393561670E+03   -0.32979E-03   -0.32979E-03  7488   0.582E-02-0.913E-07
CGA:  13    -0.343393974398E+03   -0.41273E-03   -0.41256E-03  7488   0.648E-02 0.717E-05
CGA:  14    -0.343394165503E+03   -0.19110E-03   -0.19131E-03  7488   0.181E-02-0.195E-05
CGA:  15    -0.343394229387E+03   -0.63885E-04   -0.63910E-04  7488   0.703E-03 0.573E-06
CGA:  16    -0.343394337188E+03   -0.10780E-03   -0.10766E-03  7488   0.112E-02 0.101E-05
CGA:  17    -0.343394372429E+03   -0.35241E-04   -0.35266E-04  7488   0.337E-03-0.286E-06
CGA:  18    -0.343394386049E+03   -0.13620E-04   -0.13629E-04  7488   0.290E-03-0.969E-07
CGA:  19    -0.343394404413E+03   -0.18364E-04   -0.18355E-04  7488   0.249E-03 0.520E-06
CGA:  20    -0.343394414862E+03   -0.10449E-04   -0.10458E-04  7488   0.190E-03 0.582E-07
CGA:  21    -0.343394430793E+03   -0.15931E-04   -0.15927E-04  7488   0.124E-03-0.206E-06
CGA:  22    -0.343394435899E+03   -0.51064E-05   -0.51085E-05  7488   0.546E-04-0.212E-06
  27 F= -.34339444E+03 E0= -.34337489E+03  d E =0.880943E-03  mag=    20.0000
       N       E                     dE             d eps       ncg     rms          ort
SDA:   1    -0.343335579597E+03    0.58851E-01    0.00000E+00  7488   0.407E+00 0.000E+00
CGA:   2    -0.343345126933E+03   -0.95473E-02   -0.95300E-02  7488   0.215E+00 0.461E-03
CGA:   3    -0.343366764160E+03   -0.21637E-01   -0.21734E-01  7488   0.342E+00-0.197E-02
CGA:   4    -0.343382296169E+03   -0.15532E-01   -0.15568E-01  7488   0.539E-01 0.105E-02
CGA:   5    -0.343388718123E+03   -0.64220E-02   -0.64265E-02  7488   0.902E-01-0.712E-04
CGA:   6    -0.343392070910E+03   -0.33528E-02   -0.33522E-02  7488   0.222E-01-0.968E-05
CGA:   7    -0.343392694604E+03   -0.62369E-03   -0.62339E-03  7488   0.109E-01 0.546E-05
CGA:   8    -0.343393393844E+03   -0.69924E-03   -0.69914E-03  7488   0.969E-02 0.990E-05
CGA:   9    -0.343393798275E+03   -0.40443E-03   -0.40447E-03  7488   0.381E-02 0.504E-05
CGA:  10    -0.343393943968E+03   -0.14569E-03   -0.14569E-03  7488   0.187E-02 0.146E-05
CGA:  11    -0.343394063479E+03   -0.11951E-03   -0.11948E-03  7488   0.111E-02 0.242E-05
CGA:  12    -0.343394111074E+03   -0.47595E-04   -0.47610E-04  7488   0.105E-02 0.103E-05
CGA:  13    -0.343394160224E+03   -0.49150E-04   -0.49152E-04  7488   0.775E-03 0.384E-06
CGA:  14    -0.343394198685E+03   -0.38461E-04   -0.38455E-04  7488   0.144E-03-0.133E-05
CGA:  15    -0.343394206986E+03   -0.83011E-05   -0.83034E-05  7488   0.167E-03-0.684E-06
CGA:  16    -0.343394219411E+03   -0.12424E-04   -0.12420E-04  7488   0.284E-03 0.214E-06
CGA:  17    -0.343394228305E+03   -0.88943E-05   -0.89072E-05  7488   0.333E-04 0.444E-06
  28 F= -.34339423E+03 E0= -.34337466E+03  d E =0.207594E-03  mag=    20.0000
       N       E                     dE             d eps       ncg     rms          ort
SDA:   1    -0.343360376840E+03    0.33843E-01    0.00000E+00  7488   0.410E+00 0.000E+00
CGA:   2    -0.343368462654E+03   -0.80858E-02   -0.80466E-02  7488   0.964E-01 0.150E-02
CGA:   3    -0.343379427727E+03   -0.10965E-01   -0.10941E-01  7488   0.285E+00 0.432E-03
CGA:   4    -0.343389666742E+03   -0.10239E-01   -0.10220E-01  7488   0.618E-01 0.723E-04
CGA:   5    -0.343392103639E+03   -0.24369E-02   -0.24385E-02  7488   0.279E-01 0.310E-05
CGA:   6    -0.343395275932E+03   -0.31723E-02   -0.31745E-02  7488   0.253E-01-0.380E-04
CGA:   7    -0.343396139399E+03   -0.86347E-03   -0.86356E-03  7488   0.578E-02-0.357E-05
CGA:   8    -0.343396341126E+03   -0.20173E-03   -0.20167E-03  7488   0.475E-02-0.825E-06
CGA:   9    -0.343396609436E+03   -0.26831E-03   -0.26831E-03  7488   0.311E-02-0.252E-06
CGA:  10    -0.343396763115E+03   -0.15368E-03   -0.15369E-03  7488   0.896E-03 0.166E-05
CGA:  11    -0.343396829197E+03   -0.66082E-04   -0.66126E-04  7488   0.867E-03-0.219E-05
CGA:  12    -0.343396855291E+03   -0.26094E-04   -0.26054E-04  7488   0.447E-03-0.139E-05
CGA:  13    -0.343396880676E+03   -0.25386E-04   -0.25392E-04  7488   0.348E-03-0.234E-05
CGA:  14    -0.343396905697E+03   -0.25021E-04   -0.25045E-04  7488   0.130E-03-0.142E-05
CGA:  15    -0.343396909364E+03   -0.36666E-05   -0.36628E-05  7488   0.628E-04-0.186E-06
  29 F= -.34339691E+03 E0= -.34337734E+03  d E =-.268106E-02  mag=    20.0000
       N       E                     dE             d eps       ncg     rms          ort
SDA:   1    -0.342899221839E+03    0.49768E+00    0.00000E+00  7488   0.300E+01 0.000E+00
CGA:   2    -0.342971785164E+03   -0.72563E-01   -0.72677E-01  7488   0.180E+01-0.578E-02
CGA:   3    -0.343184163908E+03   -0.21238E+00   -0.21341E+00  7488   0.336E+01-0.176E-01
CGA:   4    -0.343317112237E+03   -0.13295E+00   -0.13384E+00  7488   0.486E+00 0.124E-02
CGA:   5    -0.343351077834E+03   -0.33966E-01   -0.33891E-01  7488   0.556E+00 0.427E-02
CGA:   6    -0.343384846749E+03   -0.33769E-01   -0.33777E-01  7488   0.316E+00-0.248E-02
CGA:   7    -0.343393275366E+03   -0.84286E-02   -0.83266E-02  7488   0.658E-01 0.230E-02
CGA:   8    -0.343396043164E+03   -0.27678E-02   -0.27685E-02  7488   0.585E-01-0.210E-05
CGA:   9    -0.343399403071E+03   -0.33599E-02   -0.33599E-02  7488   0.573E-01-0.208E-04
CGA:  10    -0.343401570230E+03   -0.21672E-02   -0.21659E-02  7488   0.909E-02-0.575E-05
CGA:  11    -0.343402230820E+03   -0.66059E-03   -0.66018E-03  7488   0.893E-02 0.159E-04
CGA:  12    -0.343402830701E+03   -0.59988E-03   -0.60004E-03  7488   0.416E-02-0.122E-04
CGA:  13    -0.343403042099E+03   -0.21140E-03   -0.21139E-03  7488   0.545E-02-0.182E-05
CGA:  14    -0.343403232828E+03   -0.19073E-03   -0.19068E-03  7488   0.109E-02-0.232E-05
CGA:  15    -0.343403288339E+03   -0.55510E-04   -0.55506E-04  7488   0.877E-03-0.137E-05
CGA:  16    -0.343403386574E+03   -0.98235E-04   -0.98118E-04  7488   0.123E-02 0.169E-05
CGA:  17    -0.343403425030E+03   -0.38457E-04   -0.38508E-04  7488   0.261E-03 0.345E-06
CGA:  18    -0.343403437704E+03   -0.12673E-04   -0.12680E-04  7488   0.259E-03 0.276E-06
CGA:  19    -0.343403458598E+03   -0.20894E-04   -0.20870E-04  7488   0.523E-03 0.778E-06
CGA:  20    -0.343403479483E+03   -0.20885E-04   -0.20893E-04  7488   0.194E-03 0.236E-06
CGA:  21    -0.343403487403E+03   -0.79199E-05   -0.79278E-05  7488   0.719E-04 0.778E-07
  30 F= -.34340349E+03 E0= -.34338399E+03  d E =-.657804E-02  mag=    20.0000
       N       E                     dE             d eps       ncg     rms          ort
SDA:   1    -0.340621419161E+03    0.27821E+01    0.00000E+00  7488   0.748E+01 0.000E+00
CGA:   2    -0.341531970266E+03   -0.91055E+00   -0.91239E+00  7488   0.297E+02-0.337E-01
CGA:   3    -0.342681865488E+03   -0.11499E+01   -0.11324E+01  7488   0.757E+01 0.273E+00
CGA:   4    -0.342913556970E+03   -0.23169E+00   -0.23842E+00  7488   0.345E+01-0.104E+00
CGA:   5    -0.343169818593E+03   -0.25626E+00   -0.25642E+00  7488   0.421E+01-0.634E-02
CGA:   6    -0.343317388884E+03   -0.14757E+00   -0.14733E+00  7488   0.698E+00 0.233E-02
CGA:   7    -0.343350271087E+03   -0.32882E-01   -0.32918E-01  7488   0.461E+00 0.836E-03
CGA:   8    -0.343374157454E+03   -0.23886E-01   -0.23883E-01  7488   0.443E+00-0.134E-03
CGA:   9    -0.343387215036E+03   -0.13058E-01   -0.13100E-01  7488   0.159E+00-0.619E-03
CGA:  10    -0.343397540065E+03   -0.10325E-01   -0.10333E-01  7488   0.955E-01-0.572E-03
CGA:  11    -0.343402060253E+03   -0.45202E-02   -0.45221E-02  7488   0.316E-01 0.530E-04
CGA:  12    -0.343404235100E+03   -0.21748E-02   -0.21730E-02  7488   0.454E-01 0.103E-03
CGA:  13    -0.343406556707E+03   -0.23216E-02   -0.23221E-02  7488   0.183E-01 0.291E-04
CGA:  14    -0.343407233826E+03   -0.67712E-03   -0.67814E-03  7488   0.436E-02-0.334E-05
CGA:  15    -0.343407720898E+03   -0.48707E-03   -0.48698E-03  7488   0.105E-01 0.762E-06
CGA:  16    -0.343408102149E+03   -0.38125E-03   -0.38257E-03  7488   0.464E-02-0.620E-05
CGA:  17    -0.343408242254E+03   -0.14011E-03   -0.14037E-03  7488   0.137E-02-0.256E-05
CGA:  18    -0.343408362892E+03   -0.12064E-03   -0.12041E-03  7488   0.168E-02 0.608E-05
CGA:  19    -0.343408443853E+03   -0.80961E-04   -0.81031E-04  7488   0.116E-02 0.399E-05
CGA:  20    -0.343408522900E+03   -0.79047E-04   -0.79006E-04  7488   0.125E-02 0.317E-05
CGA:  21    -0.343408582343E+03   -0.59443E-04   -0.59474E-04  7488   0.374E-03 0.211E-05
CGA:  22    -0.343408596031E+03   -0.13688E-04   -0.13713E-04  7488   0.370E-03 0.629E-06
CGA:  23    -0.343408623409E+03   -0.27378E-04   -0.27335E-04  7488   0.463E-03 0.224E-05
CGA:  24    -0.343408649120E+03   -0.25711E-04   -0.25716E-04  7488   0.107E-03 0.224E-05
CGA:  25    -0.343408654074E+03   -0.49539E-05   -0.49609E-05  7488   0.761E-04 0.454E-06
  31 F= -.34340865E+03 E0= -.34338924E+03  d E =-.516667E-02  mag=    20.0000
       N       E                     dE             d eps       ncg     rms          ort
SDA:   1    -0.338863567297E+03    0.45451E+01    0.00000E+00  7488   0.171E+02 0.000E+00
CGA:   2    -0.339645410649E+03   -0.78184E+00   -0.77352E+00  7488   0.235E+02-0.104E+00
CGA:   3    -0.341686308038E+03   -0.20409E+01   -0.20972E+01  7488   0.348E+02-0.213E+01
CGA:   4    -0.342420866132E+03   -0.73456E+00   -0.75925E+00  7488   0.105E+02-0.728E+00
CGA:   5    -0.342655788174E+03   -0.23492E+00   -0.23407E+00  7488   0.579E+01 0.269E-01
CGA:   6    -0.342880234458E+03   -0.22445E+00   -0.22326E+00  7488   0.843E+01-0.390E-02
CGA:   7    -0.343208801441E+03   -0.32857E+00   -0.32765E+00  7488   0.335E+01-0.525E-02
CGA:   8    -0.343264201317E+03   -0.55400E-01   -0.58417E-01  7488   0.116E+01-0.129E+00
CGA:   9    -0.343297396127E+03   -0.33195E-01   -0.33469E-01  7488   0.655E+00-0.269E-02
CGA:  10    -0.343328757445E+03   -0.31361E-01   -0.31360E-01  7488   0.100E+01-0.108E-03
CGA:  11    -0.343356068605E+03   -0.27311E-01   -0.28512E-01  7488   0.414E+00-0.140E-01
CGA:  12    -0.343367177612E+03   -0.11109E-01   -0.11264E-01  7488   0.219E+00-0.181E-02
CGA:  13    -0.343377747088E+03   -0.10569E-01   -0.10570E-01  7488   0.151E+00-0.116E-02
CGA:  14    -0.343381244763E+03   -0.34977E-02   -0.36161E-02  7488   0.805E-01-0.233E-02
CGA:  15    -0.343385845257E+03   -0.46005E-02   -0.45728E-02  7488   0.871E-01 0.175E-02
CGA:  16    -0.343390103696E+03   -0.42584E-02   -0.42592E-02  7488   0.578E-01-0.113E-02
CGA:  17    -0.343391530912E+03   -0.14272E-02   -0.14770E-02  7488   0.163E-01-0.725E-03
CGA:  18    -0.343392074470E+03   -0.54356E-03   -0.54430E-03  7488   0.130E-01 0.727E-05
CGA:  19    -0.343393021180E+03   -0.94671E-03   -0.95114E-03  7488   0.182E-01-0.143E-03
CGA:  20    -0.343393831074E+03   -0.80989E-03   -0.81159E-03  7488   0.787E-02 0.360E-03
CGA:  21    -0.343394010082E+03   -0.17901E-03   -0.17917E-03  7488   0.234E-02-0.160E-04
CGA:  22    -0.343394176851E+03   -0.16677E-03   -0.16664E-03  7488   0.371E-02 0.228E-05
CGA:  23    -0.343394469612E+03   -0.29276E-03   -0.28808E-03  7488   0.310E-02 0.133E-03
CGA:  24    -0.343394557629E+03   -0.88017E-04   -0.88000E-04  7488   0.955E-03 0.287E-05
CGA:  25    -0.343394594033E+03   -0.36404E-04   -0.36441E-04  7488   0.807E-03 0.618E-06
CGA:  26    -0.343394663733E+03   -0.69700E-04   -0.69305E-04  7488   0.130E-02 0.905E-05
CGA:  27    -0.343394721613E+03   -0.57880E-04   -0.57874E-04  7488   0.362E-03-0.397E-06
CGA:  28    -0.343394735121E+03   -0.13508E-04   -0.13533E-04  7488   0.222E-03 0.467E-06
CGA:  29    -0.343394746046E+03   -0.10925E-04   -0.10923E-04  7488   0.303E-03 0.101E-05
CGA:  30    -0.343394765381E+03   -0.19335E-04   -0.19283E-04  7488   0.195E-03 0.275E-05
CGA:  31    -0.343394773882E+03   -0.85007E-05   -0.85098E-05  7488   0.964E-04 0.783E-06
  32 F= -.34339477E+03 E0= -.34337549E+03  d E =0.138802E-01  mag=    20.0000
       N       E                     dE             d eps       ncg     rms          ort
SDA:   1    -0.341278570714E+03    0.21162E+01    0.00000E+00  7488   0.646E+01 0.000E+00
CGA:   2    -0.341886754872E+03   -0.60818E+00   -0.65071E+00  7488   0.176E+02-0.869E+00
CGA:   3    -0.342606031112E+03   -0.71928E+00   -0.71980E+00  7488   0.122E+02 0.573E-01
CGA:   4    -0.342948827269E+03   -0.34280E+00   -0.36428E+00  7488   0.315E+01-0.125E+00
CGA:   5    -0.343085382485E+03   -0.13656E+00   -0.13649E+00  7488   0.301E+01-0.239E-02
CGA:   6    -0.343260450650E+03   -0.17507E+00   -0.17545E+00  7488   0.183E+01-0.289E-01
CGA:   7    -0.343326786026E+03   -0.66335E-01   -0.66126E-01  7488   0.395E+00-0.174E-02
CGA:   8    -0.343341593637E+03   -0.14808E-01   -0.14825E-01  7488   0.399E+00 0.300E-03
CGA:   9    -0.343362355738E+03   -0.20762E-01   -0.20774E-01  7488   0.189E+00-0.212E-02
CGA:  10    -0.343370063644E+03   -0.77079E-02   -0.77017E-02  7488   0.102E+00-0.208E-03
CGA:  11    -0.343377000687E+03   -0.69370E-02   -0.69136E-02  7488   0.609E-01 0.966E-03
CGA:  12    -0.343378785940E+03   -0.17853E-02   -0.17850E-02  7488   0.218E-01 0.145E-04
CGA:  13    -0.343381827235E+03   -0.30413E-02   -0.30407E-02  7488   0.261E-01 0.500E-05
CGA:  14    -0.343382719889E+03   -0.89265E-03   -0.89395E-03  7488   0.768E-02 0.349E-05
CGA:  15    -0.343382925984E+03   -0.20609E-03   -0.20625E-03  7488   0.410E-02-0.127E-06
CGA:  16    -0.343383527476E+03   -0.60149E-03   -0.60076E-03  7488   0.501E-02 0.616E-05
CGA:  17    -0.343383731902E+03   -0.20443E-03   -0.20438E-03  7488   0.154E-02 0.239E-06
CGA:  18    -0.343383803169E+03   -0.71267E-04   -0.71267E-04  7488   0.148E-02-0.186E-06
CGA:  19    -0.343383887626E+03   -0.84457E-04   -0.84453E-04  7488   0.135E-02 0.225E-06
CGA:  20    -0.343383951900E+03   -0.64274E-04   -0.64291E-04  7488   0.124E-02 0.162E-05
CGA:  21    -0.343384017941E+03   -0.66041E-04   -0.66044E-04  7488   0.108E-02 0.165E-05
CGA:  22    -0.343384066784E+03   -0.48843E-04   -0.48845E-04  7488   0.246E-03-0.434E-06
CGA:  23    -0.343384082706E+03   -0.15921E-04   -0.15929E-04  7488   0.351E-03-0.101E-05
CGA:  24    -0.343384116875E+03   -0.34170E-04   -0.34200E-04  7488   0.638E-03-0.102E-05
CGA:  25    -0.343384132036E+03   -0.15160E-04   -0.15166E-04  7488   0.615E-04-0.675E-06
CGA:  26    -0.343384139969E+03   -0.79332E-05   -0.79087E-05  7488   0.119E-03 0.182E-06
  33 F= -.34338414E+03 E0= -.34336459E+03  d E =0.106339E-01  mag=    20.0000
       N       E                     dE             d eps       ncg     rms          ort
SDA:   1    -0.342933455891E+03    0.45068E+00    0.00000E+00  7488   0.147E+01 0.000E+00
CGA:   2    -0.343039995432E+03   -0.10654E+00   -0.10655E+00  7488   0.389E+01-0.568E-03
CGA:   3    -0.343234479926E+03   -0.19448E+00   -0.19427E+00  7488   0.181E+01-0.680E-02
CGA:   4    -0.343297654033E+03   -0.63174E-01   -0.63769E-01  7488   0.550E+00-0.429E-02
CGA:   5    -0.343344436319E+03   -0.46782E-01   -0.46828E-01  7488   0.827E+00-0.122E-02
CGA:   6    -0.343376111282E+03   -0.31675E-01   -0.31689E-01  7488   0.190E+00 0.524E-04
CGA:   7    -0.343382926321E+03   -0.68150E-02   -0.68319E-02  7488   0.699E-01-0.545E-04
CGA:   8    -0.343387455574E+03   -0.45293E-02   -0.45293E-02  7488   0.109E+00-0.153E-05
CGA:   9    -0.343391480732E+03   -0.40252E-02   -0.40221E-02  7488   0.370E-01 0.102E-04
CGA:  10    -0.343392686065E+03   -0.12053E-02   -0.11999E-02  7488   0.758E-02 0.527E-04
CGA:  11    -0.343393700504E+03   -0.10144E-02   -0.10139E-02  7488   0.158E-01 0.858E-05
CGA:  12    -0.343394332985E+03   -0.63248E-03   -0.63231E-03  7488   0.481E-02-0.193E-05
CGA:  13    -0.343394449701E+03   -0.11672E-03   -0.11669E-03  7488   0.154E-02 0.830E-06
CGA:  14    -0.343394613045E+03   -0.16334E-03   -0.16332E-03  7488   0.338E-02 0.790E-06
CGA:  15    -0.343394744508E+03   -0.13146E-03   -0.13145E-03  7488   0.942E-03-0.554E-06
CGA:  16    -0.343394781168E+03   -0.36661E-04   -0.36667E-04  7488   0.357E-03 0.184E-06
CGA:  17    -0.343394815149E+03   -0.33981E-04   -0.33929E-04  7488   0.833E-03 0.112E-05
CGA:  18    -0.343394848753E+03   -0.33604E-04   -0.33620E-04  7488   0.464E-03 0.298E-06
[...]
CGA:  16    -0.343319028356E+03   -0.50248E-03   -0.50300E-03  7488   0.282E-02 0.207E-04
CGA:  17    -0.343319151453E+03   -0.12310E-03   -0.12313E-03  7488   0.169E-02 0.302E-05
CGA:  18    -0.343319250340E+03   -0.98886E-04   -0.98835E-04  7488   0.253E-02 0.475E-05
CGA:  19    -0.343319368973E+03   -0.11863E-03   -0.11867E-03  7488   0.107E-02 0.501E-05
CGA:  20    -0.343319418977E+03   -0.50004E-04   -0.50007E-04  7488   0.684E-03-0.224E-06
CGA:  21    -0.343319450002E+03   -0.31025E-04   -0.31025E-04  7488   0.597E-03-0.164E-06
CGA:  22    -0.343319486021E+03   -0.36018E-04   -0.36001E-04  7488   0.451E-03 0.104E-05
CGA:  23    -0.343319505291E+03   -0.19271E-04   -0.19269E-04  7488   0.406E-03-0.772E-06
CGA:  24    -0.343319527039E+03   -0.21748E-04   -0.21755E-04  7488   0.198E-03-0.248E-05
CGA:  25    -0.343319534688E+03   -0.76483E-05   -0.76355E-05  7488   0.896E-04-0.148E-05
  48 F= -.34331953E+03 E0= -.34329931E+03  d E =-.109381E+00  mag=    20.0000
       N       E                     dE             d eps       ncg     rms          ort
SDA:   1    -0.342621419833E+03    0.69811E+00    0.00000E+00  7488   0.860E+01 0.000E+00
CGA:   2    -0.342806106971E+03   -0.18469E+00   -0.19915E+00  7488   0.298E+01-0.365E+00
CGA:   3    -0.342947375079E+03   -0.14127E+00   -0.14129E+00  7488   0.289E+01-0.243E-01
CGA:   4    -0.343157416826E+03   -0.21004E+00   -0.21057E+00  7488   0.212E+01-0.185E-01
CGA:   5    -0.343217613625E+03   -0.60197E-01   -0.59744E-01  7488   0.798E+00 0.550E-02
CGA:   6    -0.343271432532E+03   -0.53819E-01   -0.53860E-01  7488   0.102E+01-0.177E-02
CGA:   7    -0.343320898095E+03   -0.49466E-01   -0.49453E-01  7488   0.537E+00-0.316E-02
CGA:   8    -0.343335250067E+03   -0.14352E-01   -0.14297E-01  7488   0.914E-01 0.991E-03
CGA:   9    -0.343340264545E+03   -0.50145E-02   -0.50124E-02  7488   0.973E-01 0.225E-03
CGA:  10    -0.343345671455E+03   -0.54069E-02   -0.54057E-02  7488   0.919E-01 0.131E-03
CGA:  11    -0.343348394910E+03   -0.27235E-02   -0.27219E-02  7488   0.889E-02 0.308E-04
CGA:  12    -0.343349069379E+03   -0.67447E-03   -0.67391E-03  7488   0.216E-01 0.197E-04
CGA:  13    -0.343350132443E+03   -0.10631E-02   -0.10631E-02  7488   0.966E-02 0.390E-04
CGA:  14    -0.343350517479E+03   -0.38504E-03   -0.38505E-03  7488   0.290E-02 0.109E-05
CGA:  15    -0.343350634121E+03   -0.11664E-03   -0.11667E-03  7488   0.284E-02 0.138E-05
CGA:  16    -0.343350828884E+03   -0.19476E-03   -0.19462E-03  7488   0.249E-02 0.664E-05
CGA:  17    -0.343350933716E+03   -0.10483E-03   -0.10486E-03  7488   0.110E-02 0.279E-05
CGA:  18    -0.343350972996E+03   -0.39280E-04   -0.39297E-04  7488   0.657E-03 0.575E-06
CGA:  19    -0.343351013978E+03   -0.40982E-04   -0.40957E-04  7488   0.480E-03 0.151E-05
CGA:  20    -0.343351034345E+03   -0.20367E-04   -0.20371E-04  7488   0.425E-03 0.330E-06
CGA:  21    -0.343351060938E+03   -0.26593E-04   -0.26584E-04  7488   0.391E-03 0.675E-06
CGA:  22    -0.343351077945E+03   -0.17007E-04   -0.17012E-04  7488   0.138E-03 0.570E-06
CGA:  23    -0.343351083005E+03   -0.50598E-05   -0.50621E-05  7488   0.117E-03 0.625E-07
CGA:  24    -0.343351093544E+03   -0.10540E-04   -0.10552E-04  7488   0.169E-03-0.276E-06
CGA:  25    -0.343351100713E+03   -0.71682E-05   -0.71667E-05  7488   0.577E-04-0.252E-06
  49 F= -.34335110E+03 E0= -.34333125E+03  d E =-.315660E-01  mag=    20.0000
       N       E                     dE             d eps       ncg     rms          ort
SDA:   1    -0.343167346921E+03    0.18375E+00    0.00000E+00  7488   0.140E+01 0.000E+00
CGA:   2    -0.343206187814E+03   -0.38841E-01   -0.39698E-01  7488   0.850E+00-0.988E-02
CGA:   3    -0.343253762464E+03   -0.47575E-01   -0.47636E-01  7488   0.912E+00-0.469E-02
CGA:   4    -0.343309223362E+03   -0.55461E-01   -0.55554E-01  7488   0.445E+00-0.535E-02
CGA:   5    -0.343323260079E+03   -0.14037E-01   -0.13999E-01  7488   0.231E+00 0.156E-03
CGA:   6    -0.343341896129E+03   -0.18636E-01   -0.18658E-01  7488   0.285E+00-0.594E-03
CGA:   7    -0.343351836167E+03   -0.99400E-02   -0.99301E-02  7488   0.108E+00-0.696E-04
CGA:   8    -0.343354902773E+03   -0.30666E-02   -0.30623E-02  7488   0.225E-01 0.521E-04
CGA:   9    -0.343356645843E+03   -0.17431E-02   -0.17423E-02  7488   0.297E-01 0.255E-04
CGA:  10    -0.343357931294E+03   -0.12855E-02   -0.12853E-02  7488   0.140E-01-0.247E-05
CGA:  11    -0.343358301037E+03   -0.36974E-03   -0.36969E-03  7488   0.401E-02 0.620E-05
CGA:  12    -0.343358641253E+03   -0.34022E-03   -0.34041E-03  7488   0.342E-02-0.461E-05
CGA:  13    -0.343358775058E+03   -0.13380E-03   -0.13380E-03  7488   0.256E-02-0.761E-06
CGA:  14    -0.343358919300E+03   -0.14424E-03   -0.14425E-03  7488   0.249E-02-0.155E-05
CGA:  15    -0.343359014157E+03   -0.94857E-04   -0.94865E-04  7488   0.613E-03 0.460E-07
CGA:  16    -0.343359037605E+03   -0.23448E-04   -0.23457E-04  7488   0.433E-03 0.634E-06
CGA:  17    -0.343359069075E+03   -0.31470E-04   -0.31458E-04  7488   0.574E-03 0.476E-06
CGA:  18    -0.343359096894E+03   -0.27819E-04   -0.27818E-04  7488   0.287E-03-0.743E-06
CGA:  19    -0.343359104582E+03   -0.76882E-05   -0.76898E-05  7488   0.793E-04-0.343E-07
  50 F= -.34335910E+03 E0= -.34333944E+03  d E =-.800387E-02  mag=    20.0000
       N       E                     dE             d eps       ncg     rms          ort
SDA:   1    -0.343269130691E+03    0.89966E-01    0.00000E+00  7488   0.714E+00 0.000E+00
CGA:   2    -0.343285542811E+03   -0.16412E-01   -0.16505E-01  7488   0.349E+00-0.219E-02
CGA:   3    -0.343315045660E+03   -0.29503E-01   -0.29494E-01  7488   0.503E+00 0.203E-03
CGA:   4    -0.343339532545E+03   -0.24487E-01   -0.24482E-01  7488   0.114E+00-0.113E-02
CGA:   5    -0.343347089955E+03   -0.75574E-02   -0.75590E-02  7488   0.175E+00-0.743E-04
CGA:   6    -0.343355644694E+03   -0.85547E-02   -0.85548E-02  7488   0.115E+00-0.163E-04
CGA:   7    -0.343358725300E+03   -0.30806E-02   -0.30755E-02  7488   0.160E-01 0.602E-04
CGA:   8    -0.343359647467E+03   -0.92217E-03   -0.92207E-03  7488   0.198E-01 0.976E-05
CGA:   9    -0.343360660933E+03   -0.10135E-02   -0.10135E-02  7488   0.871E-02-0.188E-05
CGA:  10    -0.343360986566E+03   -0.32563E-03   -0.32575E-03  7488   0.332E-02 0.583E-05
CGA:  11    -0.343361132463E+03   -0.14590E-03   -0.14589E-03  7488   0.311E-02 0.837E-06
CGA:  12    -0.343361258214E+03   -0.12575E-03   -0.12575E-03  7488   0.137E-02-0.124E-05
CGA:  13    -0.343361352844E+03   -0.94630E-04   -0.94709E-04  7488   0.111E-02-0.388E-05
CGA:  14    -0.343361420200E+03   -0.67356E-04   -0.67359E-04  7488   0.765E-03-0.382E-06
CGA:  15    -0.343361439595E+03   -0.19395E-04   -0.19391E-04  7488   0.224E-03-0.871E-07
CGA:  16    -0.343361454002E+03   -0.14408E-04   -0.14416E-04  7488   0.297E-03-0.646E-06
CGA:  17    -0.343361475704E+03   -0.21702E-04   -0.21716E-04  7488   0.218E-03-0.653E-06
CGA:  18    -0.343361481481E+03   -0.57766E-05   -0.57766E-05  7488   0.405E-04-0.202E-06
  51 F= -.34336148E+03 E0= -.34334188E+03  d E =-.237690E-02  mag=    20.0000
       N       E                     dE             d eps       ncg     rms          ort
SDA:   1    -0.343336182273E+03    0.25293E-01    0.00000E+00  7488   0.891E+00 0.000E+00
CGA:   2    -0.343349376939E+03   -0.13195E-01   -0.13249E-01  7488   0.409E-01-0.309E-02
CGA:   3    -0.343352984557E+03   -0.36076E-02   -0.36049E-02  7488   0.932E-01 0.743E-04
CGA:   4    -0.343358264532E+03   -0.52800E-02   -0.52808E-02  7488   0.348E-01-0.823E-04
CGA:   5    -0.343359459283E+03   -0.11948E-02   -0.11953E-02  7488   0.162E-01 0.120E-04
CGA:   6    -0.343360958299E+03   -0.14990E-02   -0.14991E-02  7488   0.216E-01 0.203E-05
CGA:   7    -0.343361577636E+03   -0.61934E-03   -0.61899E-03  7488   0.639E-02-0.331E-06
CGA:   8    -0.343361773837E+03   -0.19620E-03   -0.19619E-03  7488   0.208E-02-0.288E-05
CGA:   9    -0.343361955179E+03   -0.18134E-03   -0.18135E-03  7488   0.165E-02-0.396E-07
CGA:  10    -0.343362036722E+03   -0.81543E-04   -0.81546E-04  7488   0.850E-03 0.558E-06
CGA:  11    -0.343362065591E+03   -0.28869E-04   -0.28864E-04  7488   0.535E-03-0.451E-06
CGA:  12    -0.343362090938E+03   -0.25347E-04   -0.25342E-04  7488   0.255E-03-0.941E-06
CGA:  13    -0.343362101331E+03   -0.10393E-04   -0.10388E-04  7488   0.199E-03-0.443E-06
CGA:  14    -0.343362115760E+03   -0.14429E-04   -0.14438E-04  7488   0.185E-03-0.322E-06
CGA:  15    -0.343362123836E+03   -0.80752E-05   -0.80763E-05  7488   0.366E-04 0.997E-07
  52 F= -.34336212E+03 E0= -.34334247E+03  d E =-.642355E-03  mag=    20.0000
       N       E                     dE             d eps       ncg     rms          ort
SDA:   1    -0.343346601582E+03    0.15514E-01    0.00000E+00  7488   0.278E+00 0.000E+00
CGA:   2    -0.343351020263E+03   -0.44187E-02   -0.44269E-02  7488   0.344E-01-0.412E-03
CGA:   3    -0.343356293124E+03   -0.52729E-02   -0.52781E-02  7488   0.715E-01-0.477E-04
CGA:   4    -0.343358787389E+03   -0.24943E-02   -0.24950E-02  7488   0.214E-01 0.717E-05
CGA:   5    -0.343359796763E+03   -0.10094E-02   -0.10096E-02  7488   0.176E-01 0.252E-04
CGA:   6    -0.343361183664E+03   -0.13869E-02   -0.13863E-02  7488   0.103E-01 0.243E-04
CGA:   7    -0.343361465506E+03   -0.28184E-03   -0.28187E-03  7488   0.440E-02 0.526E-05
CGA:   8    -0.343361653485E+03   -0.18798E-03   -0.18798E-03  7488   0.249E-02 0.258E-05
CGA:   9    -0.343361786733E+03   -0.13325E-03   -0.13324E-03  7488   0.747E-03 0.254E-05
CGA:  10    -0.343361849586E+03   -0.62852E-04   -0.62974E-04  7488   0.112E-02-0.373E-05
CGA:  11    -0.343361882025E+03   -0.32439E-04   -0.32406E-04  7488   0.243E-03-0.152E-05
CGA:  12    -0.343361891815E+03   -0.97903E-05   -0.97934E-05  7488   0.186E-03 0.268E-06
CGA:  13    -0.343361902231E+03   -0.10416E-04   -0.10415E-04  7488   0.212E-03 0.277E-06
CGA:  14    -0.343361915283E+03   -0.13052E-04   -0.13058E-04  7488   0.557E-04-0.595E-06
CGA:  15    -0.343361917456E+03   -0.21737E-05   -0.21702E-05  7488   0.301E-04-0.254E-06
  53 F= -.34336192E+03 E0= -.34334222E+03  d E =0.206379E-03  mag=    20.0000
       N       E                     dE             d eps       ncg     rms          ort
SDA:   1    -0.343348462103E+03    0.13453E-01    0.00000E+00  7488   0.384E+00 0.000E+00
CGA:   2    -0.343354230740E+03   -0.57686E-02   -0.57845E-02  7488   0.231E-01-0.869E-03
CGA:   3    -0.343356020034E+03   -0.17893E-02   -0.17897E-02  7488   0.359E-01-0.356E-05
CGA:   4    -0.343359054830E+03   -0.30348E-02   -0.30369E-02  7488   0.147E-01-0.549E-04
CGA:   5    -0.343359598539E+03   -0.54371E-03   -0.54400E-03  7488   0.756E-02 0.455E-05
CGA:   6    -0.343360029829E+03   -0.43129E-03   -0.43127E-03  7488   0.955E-02 0.722E-05
CGA:   7    -0.343360449223E+03   -0.41939E-03   -0.41934E-03  7488   0.394E-02 0.661E-06
CGA:   8    -0.343360567535E+03   -0.11831E-03   -0.11822E-03  7488   0.143E-02 0.117E-06
CGA:   9    -0.343360634922E+03   -0.67387E-04   -0.67379E-04  7488   0.759E-03-0.167E-05
CGA:  10    -0.343360679087E+03   -0.44164E-04   -0.44170E-04  7488   0.372E-03-0.775E-06
CGA:  11    -0.343360700462E+03   -0.21375E-04   -0.21380E-04  7488   0.420E-03-0.811E-06
CGA:  12    -0.343360715961E+03   -0.15499E-04   -0.15483E-04  7488   0.201E-03-0.100E-05
CGA:  13    -0.343360722520E+03   -0.65592E-05   -0.65455E-05  7488   0.519E-04-0.770E-06
  54 F= -.34336072E+03 E0= -.34334102E+03  d E =0.119494E-02  mag=    20.0000
       N       E                     dE             d eps       ncg     rms          ort
SDA:   1    -0.343277394869E+03    0.83321E-01    0.00000E+00  7488   0.111E+01 0.000E+00
CGA:   2    -0.343298099157E+03   -0.20704E-01   -0.20365E-01  7488   0.192E+00 0.137E-01
CGA:   3    -0.343318100442E+03   -0.20001E-01   -0.20009E-01  7488   0.583E+00-0.153E-03
CGA:   4    -0.343340439613E+03   -0.22339E-01   -0.22321E-01  7488   0.137E+00 0.125E-04
CGA:   5    -0.343345707338E+03   -0.52677E-02   -0.52815E-02  7488   0.499E-01 0.642E-04
CGA:   6    -0.343352814721E+03   -0.71074E-02   -0.71067E-02  7488   0.535E-01 0.108E-04
CGA:   7    -0.343354317521E+03   -0.15028E-02   -0.15024E-02  7488   0.162E-01 0.154E-04
CGA:   8    -0.343354821153E+03   -0.50363E-03   -0.50433E-03  7488   0.603E-02-0.370E-05
CGA:   9    -0.343355210863E+03   -0.38971E-03   -0.38976E-03  7488   0.973E-02-0.188E-05
CGA:  10    -0.343355619536E+03   -0.40867E-03   -0.40869E-03  7488   0.214E-02-0.128E-05
CGA:  11    -0.343355719565E+03   -0.10003E-03   -0.10003E-03  7488   0.117E-02-0.120E-06
CGA:  12    -0.343355820230E+03   -0.10066E-03   -0.10067E-03  7488   0.736E-03-0.435E-06
CGA:  13    -0.343355859416E+03   -0.39186E-04   -0.39179E-04  7488   0.823E-03-0.239E-05
CGA:  14    -0.343355894943E+03   -0.35527E-04   -0.35495E-04  7488   0.501E-03-0.250E-05
CGA:  15    -0.343355910493E+03   -0.15550E-04   -0.15532E-04  7488   0.139E-03-0.747E-06
CGA:  16    -0.343355924400E+03   -0.13907E-04   -0.13916E-04  7488   0.330E-03-0.286E-06
CGA:  17    -0.343355941478E+03   -0.17078E-04   -0.17074E-04  7488   0.169E-03-0.755E-06
CGA:  18    -0.343355948233E+03   -0.67554E-05   -0.67445E-05  7488   0.498E-04-0.708E-06
  55 F= -.34335595E+03 E0= -.34333627E+03  d E =0.477429E-02  mag=    20.0000
       N       E                     dE             d eps       ncg     rms          ort
SDA:   1    -0.343285974793E+03    0.69967E-01    0.00000E+00  7488   0.128E+01 0.000E+00
CGA:   2    -0.343307050253E+03   -0.21075E-01   -0.21240E-01  7488   0.179E+00-0.832E-02
CGA:   3    -0.343321668776E+03   -0.14619E-01   -0.14668E-01  7488   0.246E+00-0.154E-02
CGA:   4    -0.343338826228E+03   -0.17157E-01   -0.17154E-01  7488   0.101E+00 0.183E-03
CGA:   5    -0.343341937944E+03   -0.31117E-02   -0.31124E-02  7488   0.474E-01 0.109E-04
CGA:   6    -0.343345026532E+03   -0.30886E-02   -0.30891E-02  7488   0.638E-01-0.280E-04
CGA:   7    -0.343348115672E+03   -0.30891E-02   -0.30893E-02  7488   0.403E-01 0.457E-05
CGA:   8    -0.343349199317E+03   -0.10836E-02   -0.10806E-02  7488   0.507E-02 0.587E-04
CGA:   9    -0.343349529299E+03   -0.32998E-03   -0.32998E-03  7488   0.610E-02 0.419E-06
CGA:  10    -0.343349925411E+03   -0.39611E-03   -0.39606E-03  7488   0.325E-02 0.635E-05
CGA:  11    -0.343350014745E+03   -0.89335E-04   -0.89412E-04  7488   0.156E-02 0.142E-05
CGA:  12    -0.343350106450E+03   -0.91705E-04   -0.91695E-04  7488   0.106E-02 0.234E-05
CGA:  13    -0.343350160684E+03   -0.54234E-04   -0.54235E-04  7488   0.609E-03 0.104E-06
CGA:  14    -0.343350200990E+03   -0.40306E-04   -0.40304E-04  7488   0.903E-03 0.526E-06
CGA:  15    -0.343350237457E+03   -0.36467E-04   -0.36475E-04  7488   0.242E-03 0.385E-06
CGA:  16    -0.343350246524E+03   -0.90676E-05   -0.90646E-05  7488   0.223E-03-0.167E-06
CGA:  17    -0.343350265620E+03   -0.19096E-04   -0.19113E-04  7488   0.364E-03-0.535E-06
CGA:  18    -0.343350287267E+03   -0.21647E-04   -0.21647E-04  7488   0.102E-03 0.592E-08
CGA:  19    -0.343350291561E+03   -0.42942E-05   -0.42967E-05  7488   0.108E-03 0.162E-06
  56 F= -.34335029E+03 E0= -.34333063E+03  d E =0.565667E-02  mag=    20.0000
       N       E                     dE             d eps       ncg     rms          ort
SDA:   1    -0.343287481557E+03    0.62806E-01    0.00000E+00  7488   0.606E+00 0.000E+00
CGA:   2    -0.343300425856E+03   -0.12944E-01   -0.12940E-01  7488   0.217E+00 0.187E-03
CGA:   3    -0.343315374085E+03   -0.14948E-01   -0.14917E-01  7488   0.278E+00 0.151E-02
CGA:   4    -0.343332221271E+03   -0.16847E-01   -0.16853E-01  7488   0.996E-01-0.573E-03
CGA:   5    -0.343335778903E+03   -0.35576E-02   -0.35545E-02  7488   0.508E-01 0.771E-05
CGA:   6    -0.343339309106E+03   -0.35302E-02   -0.35294E-02  7488   0.718E-01 0.379E-04
CGA:   7    -0.343342859918E+03   -0.35508E-02   -0.35509E-02  7488   0.277E-01 0.133E-05
CGA:   8    -0.343343520065E+03   -0.66015E-03   -0.65935E-03  7488   0.701E-02 0.287E-04
CGA:   9    -0.343343893528E+03   -0.37346E-03   -0.37346E-03  7488   0.638E-02 0.108E-05
CGA:  10    -0.343344399044E+03   -0.50552E-03   -0.50518E-03  7488   0.275E-02 0.127E-04
CGA:  11    -0.343344493514E+03   -0.94470E-04   -0.94553E-04  7488   0.146E-02 0.384E-05
CGA:  12    -0.343344558488E+03   -0.64974E-04   -0.64999E-04  7488   0.143E-02 0.315E-05
CGA:  13    -0.343344637318E+03   -0.78830E-04   -0.78822E-04  7488   0.648E-03 0.265E-05
CGA:  14    -0.343344681029E+03   -0.43711E-04   -0.43705E-04  7488   0.826E-03 0.400E-06
CGA:  15    -0.343344712204E+03   -0.31176E-04   -0.31188E-04  7488   0.252E-03 0.633E-06
CGA:  16    -0.343344724464E+03   -0.12259E-04   -0.12262E-04  7488   0.265E-03 0.631E-06
CGA:  17    -0.343344740547E+03   -0.16083E-04   -0.16080E-04  7488   0.405E-03 0.327E-06
CGA:  18    -0.343344763825E+03   -0.23279E-04   -0.23279E-04  7488   0.143E-03 0.758E-07
CGA:  19    -0.343344770426E+03   -0.66010E-05   -0.66001E-05  7488   0.798E-04-0.130E-06
  57 F= -.34334477E+03 E0= -.34332506E+03  d E =0.552113E-02  mag=    20.0000
       N       E                     dE             d eps       ncg     rms          ort
SDA:   1    -0.343304791782E+03    0.39972E-01    0.00000E+00  7488   0.136E+01 0.000E+00
CGA:   2    -0.343324904130E+03   -0.20112E-01   -0.20219E-01  7488   0.681E-01-0.644E-02
CGA:   3    -0.343330282774E+03   -0.53786E-02   -0.53792E-02  7488   0.972E-01-0.299E-05
CGA:   4    -0.343338303088E+03   -0.80203E-02   -0.80190E-02  7488   0.730E-01 0.407E-04
CGA:   5    -0.343340422682E+03   -0.21196E-02   -0.21295E-02  7488   0.229E-01-0.134E-03
CGA:   6    -0.343341805512E+03   -0.13828E-02   -0.13828E-02  7488   0.269E-01 0.246E-05
CGA:   7    -0.343343065819E+03   -0.12603E-02   -0.12604E-02  7488   0.203E-01 0.339E-05
CGA:   8    -0.343343653178E+03   -0.58736E-03   -0.58711E-03  7488   0.229E-02-0.368E-05
CGA:   9    -0.343343824076E+03   -0.17090E-03   -0.17088E-03  7488   0.269E-02 0.145E-05
CGA:  10    -0.343343987412E+03   -0.16334E-03   -0.16330E-03  7488   0.172E-02 0.540E-05
CGA:  11    -0.343344028685E+03   -0.41273E-04   -0.41318E-04  7488   0.442E-03 0.747E-06
CGA:  12    -0.343344057387E+03   -0.28702E-04   -0.28695E-04  7488   0.505E-03 0.555E-06
CGA:  13    -0.343344081941E+03   -0.24554E-04   -0.24558E-04  7488   0.274E-03 0.954E-06
CGA:  14    -0.343344095837E+03   -0.13896E-04   -0.13898E-04  7488   0.233E-03 0.981E-06
CGA:  15    -0.343344107490E+03   -0.11653E-04   -0.11655E-04  7488   0.891E-04 0.858E-06
CGA:  16    -0.343344110172E+03   -0.26824E-05   -0.26850E-05  7488   0.517E-04 0.104E-06
  58 F= -.34334411E+03 E0= -.34332437E+03  d E =0.660254E-03  mag=    20.0000
       N       E                     dE             d eps       ncg     rms          ort
SDA:   1    -0.343336086863E+03    0.80206E-02    0.00000E+00  7488   0.257E+00 0.000E+00
CGA:   2    -0.343340744003E+03   -0.46571E-02   -0.46957E-02  7488   0.311E-01-0.155E-02
CGA:   3    -0.343341876971E+03   -0.11330E-02   -0.11328E-02  7488   0.225E-01-0.504E-05
CGA:   4    -0.343343678415E+03   -0.18014E-02   -0.18028E-02  7488   0.254E-01-0.382E-04
CGA:   5    -0.343344624074E+03   -0.94566E-03   -0.94570E-03  7488   0.845E-02 0.123E-05
CGA:   6    -0.343345000766E+03   -0.37669E-03   -0.37676E-03  7488   0.496E-02 0.731E-05
CGA:   7    -0.343345433241E+03   -0.43247E-03   -0.43235E-03  7488   0.579E-02 0.309E-05
CGA:   8    -0.343345596344E+03   -0.16310E-03   -0.16317E-03  7488   0.216E-02 0.152E-05
CGA:   9    -0.343345684631E+03   -0.88287E-04   -0.88285E-04  7488   0.101E-02 0.712E-06
CGA:  10    -0.343345740836E+03   -0.56205E-04   -0.56197E-04  7488   0.302E-03 0.129E-05
CGA:  11    -0.343345760539E+03   -0.19703E-04   -0.19714E-04  7488   0.459E-03-0.673E-06
CGA:  12    -0.343345780038E+03   -0.19499E-04   -0.19486E-04  7488   0.219E-03-0.138E-05
CGA:  13    -0.343345786724E+03   -0.66866E-05   -0.66754E-05  7488   0.578E-04-0.512E-06
  59 F= -.34334579E+03 E0= -.34332605E+03  d E =-.167655E-02  mag=    20.0000
