       N       E                     dE             d eps       ncg     rms          rms(c)
DAV:   1     0.525667229324E+04    0.52567E+04   -0.24518E+05 29824   0.163E+03
DAV:   2     0.291456853829E+03   -0.49652E+04   -0.46607E+04 30880   0.473E+02
DAV:   3    -0.316860742280E+03   -0.60832E+03   -0.57016E+03 32384   0.177E+02
DAV:   4    -0.342069750280E+03   -0.25209E+02   -0.24606E+02 33936   0.381E+01
DAV:   5    -0.342946351624E+03   -0.87660E+00   -0.87426E+00 44184   0.674E+00    0.701E-01
DAV:   6    -0.343133653620E+03   -0.18730E+00   -0.36234E-01 43952   0.132E+00    0.498E+00
DAV:   7    -0.343103231387E+03    0.30422E-01   -0.17208E-01 40432   0.746E-01    0.207E+00
DAV:   8    -0.343111404469E+03   -0.81731E-02   -0.23665E-02 36656   0.373E-01    0.204E+00
DAV:   9    -0.343107797782E+03    0.36067E-02   -0.88537E-03 36088   0.231E-01    0.987E-01
DAV:  10    -0.343108572546E+03   -0.77476E-03   -0.19610E-03 33504   0.111E-01    0.768E-01
DAV:  11    -0.343108390116E+03    0.18243E-03   -0.17429E-04 30088   0.391E-02    0.764E-01
DAV:  12    -0.343108246838E+03    0.14328E-03   -0.18040E-03 36488   0.889E-02    0.922E-01
DAV:  13    -0.343107813514E+03    0.43332E-03   -0.17621E-03 38296   0.107E-01    0.856E-01
DAV:  14    -0.343107756841E+03    0.56673E-04   -0.89554E-04 37200   0.885E-02    0.819E-01
DAV:  15    -0.343107701924E+03    0.54917E-04   -0.62319E-04 30968   0.524E-02    0.828E-01
DAV:  16    -0.343107745949E+03   -0.44024E-04   -0.39718E-04 33728   0.634E-02    0.843E-01
DAV:  17    -0.343107926802E+03   -0.18085E-03   -0.15082E-03 38208   0.107E-01    0.957E-01
DAV:  18    -0.343108266734E+03   -0.33993E-03   -0.47472E-03 37864   0.129E-01    0.932E-01
DAV:  19    -0.343108204971E+03    0.61763E-04   -0.48163E-03 37184   0.168E-01    0.729E-01
DAV:  20    -0.343109020542E+03   -0.81557E-03   -0.40072E-03 37152   0.131E-01    0.856E-01
DAV:  21    -0.343108011473E+03    0.10091E-02   -0.33960E-03 37680   0.118E-01    0.491E-01
DAV:  22    -0.343108570356E+03   -0.55888E-03   -0.13069E-03 36352   0.795E-02    0.576E-01
DAV:  23    -0.343108490580E+03    0.79776E-04   -0.39156E-04 34312   0.560E-02    0.482E-01
DAV:  24    -0.343108511334E+03   -0.20753E-04   -0.34679E-05 25696   0.212E-02    0.475E-01
DAV:  25    -0.343108155537E+03    0.35580E-03   -0.41705E-04 36024   0.727E-02    0.408E-01
DAV:  26    -0.343107411183E+03    0.74435E-03   -0.11611E-03 35104   0.921E-02    0.451E-01
DAV:  27    -0.343107596523E+03   -0.18534E-03   -0.49396E-04 34360   0.648E-02    0.396E-01
DAV:  28    -0.343108324202E+03   -0.72768E-03   -0.11458E-03 36936   0.111E-01    0.327E-01
DAV:  29    -0.343108608564E+03   -0.28436E-03   -0.48306E-04 34648   0.633E-02    0.335E-01
DAV:  30    -0.343108695280E+03   -0.86717E-04   -0.10096E-04 28072   0.267E-02    0.334E-01
DAV:  31    -0.343108975072E+03   -0.27979E-03   -0.90585E-05 28072   0.327E-02    0.324E-01
DAV:  32    -0.343109108265E+03   -0.13319E-03   -0.81317E-04 33832   0.896E-02    0.256E-01
DAV:  33    -0.343108910914E+03    0.19735E-03   -0.54957E-04 34768   0.596E-02    0.223E-01
DAV:  34    -0.343109215776E+03   -0.30486E-03   -0.21707E-04 32904   0.461E-02    0.177E-01
DAV:  35    -0.343109263669E+03   -0.47892E-04   -0.16198E-04 31784   0.400E-02    0.131E-01
DAV:  36    -0.343109372145E+03   -0.10848E-03   -0.13641E-04 30376   0.302E-02    0.108E-01
DAV:  37    -0.343109425150E+03   -0.53005E-04   -0.34555E-05 21992   0.184E-02    0.929E-02
DAV:  38    -0.343109433744E+03   -0.85941E-05   -0.24964E-05 18752   0.143E-02
   1 F= -.34310943E+03 E0= -.34308806E+03  d E =-.343109E+03  mag=     1.2138
       N       E                     dE             d eps       ncg     rms          rms(c)
DAV:   1    -0.343105022418E+03    0.44027E-02   -0.50810E-01 31568   0.331E+00    0.390E-01
DAV:   2    -0.343112823845E+03   -0.78014E-02   -0.74896E-02 28424   0.695E-01    0.156E+00
DAV:   3    -0.343110138103E+03    0.26857E-02   -0.24526E-02 37064   0.332E-01    0.991E-01
DAV:   4    -0.343111508324E+03   -0.13702E-02   -0.10557E-02 36896   0.209E-01    0.122E+00
DAV:   5    -0.343110148316E+03    0.13600E-02   -0.87207E-03 36632   0.181E-01    0.906E-01
DAV:   6    -0.343109756275E+03    0.39204E-03   -0.36927E-03 34336   0.131E-01    0.412E-01
DAV:   7    -0.343110458526E+03   -0.70225E-03   -0.16231E-03 36464   0.116E-01    0.605E-01
DAV:   8    -0.343109900077E+03    0.55845E-03   -0.17083E-03 37152   0.974E-02    0.304E-01
DAV:   9    -0.343109923744E+03   -0.23667E-04   -0.62333E-04 33568   0.649E-02    0.231E-01
DAV:  10    -0.343109888761E+03    0.34983E-04   -0.14455E-04 25568   0.302E-02    0.215E-01
DAV:  11    -0.343109839567E+03    0.49194E-04   -0.14505E-05 17384   0.136E-02    0.209E-01
DAV:  12    -0.343109810448E+03    0.29119E-04   -0.35251E-05 16240   0.145E-02    0.231E-01
DAV:  13    -0.343109759478E+03    0.50970E-04   -0.56554E-05 19872   0.233E-02    0.226E-01
DAV:  14    -0.343109789987E+03   -0.30509E-04   -0.99417E-06 15008   0.103E-02    0.224E-01
DAV:  15    -0.343109791410E+03   -0.14226E-05   -0.63052E-06 14952   0.643E-03
   2 F= -.34310979E+03 E0= -.34308847E+03  d E =-.357666E-03  mag=     1.2150
       N       E                     dE             d eps       ncg     rms          rms(c)
DAV:   1    -0.343108796843E+03    0.99314E-03   -0.90914E-02 31632   0.140E+00    0.284E-01
DAV:   2    -0.343114858889E+03   -0.60620E-02   -0.29695E-02 35952   0.382E-01    0.210E+00
DAV:   3    -0.343108207180E+03    0.66517E-02   -0.21148E-02 35440   0.276E-01    0.668E-01
DAV:   4    -0.343109619974E+03   -0.14128E-02   -0.16963E-03 30584   0.120E-01    0.368E-01
DAV:   5    -0.343109670743E+03   -0.50768E-04   -0.20020E-04 28544   0.448E-02    0.379E-01
DAV:   6    -0.343109553535E+03    0.11721E-03   -0.53071E-05 20664   0.216E-02    0.365E-01
DAV:   7    -0.343109504369E+03    0.49165E-04   -0.39098E-05 17496   0.174E-02    0.389E-01
DAV:   8    -0.343109513658E+03   -0.92885E-05   -0.52655E-06 15424   0.957E-03
   3 F= -.34310951E+03 E0= -.34308799E+03  d E =-.799136E-04  mag=     1.2163
