       N       E                     dE             d eps       ncg     rms          ort
DAV:   1     0.538319417755E+04    0.53832E+04   -0.25758E+05  7488   0.160E+03
DAV:   2     0.274718902079E+03   -0.51085E+04   -0.48505E+04  7488   0.451E+02
DAV:   3    -0.378404721041E+03   -0.65312E+03   -0.63786E+03  7488   0.173E+02
DAV:   4    -0.403709452011E+03   -0.25305E+02   -0.24873E+02  7488   0.392E+01
DAV:   5    -0.404691513246E+03   -0.98206E+00   -0.97436E+00  7488   0.679E+00
SDA:   6    -0.176808752061E+03    0.22788E+03   -0.97436E+00  7488   0.157E+04 0.000E+00
CGA:   7    -0.176817609456E+03   -0.88574E-02   -0.10773E+03  7488   0.442E+04-0.645E+03
CGA:   8    -0.214086580005E+03   -0.37269E+02   -0.84466E+02  7488   0.492E+04-0.296E+04
CGA:   9     0.611444909955E+02    0.27523E+03   -0.33002E+03  7488   0.272E+04-0.117E+04
CGA:  10    -0.233746593212E+02   -0.84519E+02   -0.18591E+02  7488   0.123E+05 0.126E+05
CGA:  11    -0.102046609848E+03   -0.78672E+02   -0.50109E+03  7488   0.179E+04-0.196E+04
CGA:  12    -0.204820342827E+03   -0.10277E+03   -0.58801E+02  7488   0.516E+04-0.697E+04
CGA:  13    -0.361842435685E+02    0.16864E+03   -0.26607E+03  7488   0.105E+05-0.627E+04
CGA:  14     0.816158298607E+02    0.11780E+03   -0.63043E+03  7488   0.114E+04-0.945E+03
CGA:  15     0.679453528079E+02   -0.13670E+02   -0.55233E+01  7488   0.122E+04 0.115E+04
CGA:  16     0.476900116097E+02   -0.20255E+02   -0.79684E+01  7488   0.172E+04 0.179E+04
CGA:  17    -0.132630146091E+03   -0.18032E+03   -0.15384E+02  7488   0.116E+05 0.165E+05
CGA:  18     0.517955667215E+02    0.18443E+03   -0.55915E+03  7488   0.149E+05-0.105E+05
CGA:  19     0.792239564914E+02    0.27428E+02   -0.86904E+03  7488   0.107E+04-0.100E+04
CGA:  20     0.557335660791E+02   -0.23490E+02   -0.10491E+02  7488   0.128E+04 0.127E+04
CGA:  21    -0.705333514426E+02   -0.12627E+03   -0.14053E+02  7488   0.166E+05 0.211E+05
CGA:  22     0.294939589980E+02    0.10003E+03   -0.72350E+03  7488   0.259E+05-0.225E+05
CGA:  23     0.616031108194E+02    0.32109E+02   -0.13482E+04  7488   0.110E+04-0.103E+04
CGA:  24     0.242893321621E+02   -0.37314E+02   -0.12260E+02  7488   0.332E+04 0.361E+04
CGA:  25    -0.271219514973E+03   -0.29551E+03   -0.73643E+02  7488   0.187E+04-0.445E+04
CGA:  26    -0.305878831596E+03   -0.34659E+02   -0.46579E+02  7488   0.229E+04-0.268E+04
CGA:  27    -0.261784482759E+03    0.44094E+02   -0.68703E+02  7488   0.523E+04-0.306E+04
CGA:  28    -0.206907265179E+03    0.54877E+02   -0.16052E+03  7488   0.793E+04-0.588E+04
CGA:  29    -0.183724481357E+03    0.23183E+02   -0.24398E+03  7488   0.409E+04-0.344E+04
CGA:  30    -0.327360868478E+03   -0.14364E+03   -0.43751E+02  7488   0.598E+03-0.235E+04
CGA:  31    -0.336290662384E+03   -0.89298E+01   -0.76183E+01  7488   0.149E+03 0.823E+02
CGA:  32    -0.337488006744E+03   -0.11973E+01   -0.27497E+01  7488   0.129E+03-0.145E+03
CGA:  33    -0.338336845769E+03   -0.84884E+00   -0.22886E+01  7488   0.747E+02-0.660E+02
CGA:  34    -0.339062040436E+03   -0.72519E+00   -0.64464E+00  7488   0.668E+01 0.678E+01
CGA:  35    -0.339331700012E+03   -0.26966E+00   -0.25925E+00  7488   0.186E+02 0.133E+00
CGA:  36    -0.340056862214E+03   -0.72516E+00   -0.54918E+00  7488   0.418E+02 0.484E+01
CGA:  37    -0.340670463215E+03   -0.61360E+00   -0.52749E+00  7488   0.433E+02-0.519E+01
CGA:  38    -0.340543587806E+03    0.12688E+00   -0.25980E+00  7488   0.685E+02-0.787E+02
CGA:  39    -0.341186591550E+03   -0.64300E+00   -0.95172E+00  7488   0.370E+02-0.212E+02
CGA:  40    -0.341386190243E+03   -0.19960E+00   -0.28046E+00  7488   0.130E+02-0.646E+01
CGA:  41    -0.341595029336E+03   -0.20884E+00   -0.23596E+00  7488   0.113E+02-0.801E+00
CGA:  42    -0.341770133143E+03   -0.17510E+00   -0.19245E+00  7488   0.117E+02-0.745E+00
CGA:  43    -0.342120443864E+03   -0.35031E+00   -0.37442E+00  7488   0.131E+02 0.802E-01
CGA:  44    -0.342477714437E+03   -0.35727E+00   -0.41329E+00  7488   0.914E+01 0.220E-01
CGA:  45    -0.342690192052E+03   -0.21248E+00   -0.22900E+00  7488   0.736E+01-0.126E+00
CGA:  46    -0.342822232659E+03   -0.13204E+00   -0.14121E+00  7488   0.245E+01-0.274E+00
CGA:  47    -0.342917431743E+03   -0.95199E-01   -0.96738E-01  7488   0.160E+01 0.107E+00
CGA:  48    -0.343002955390E+03   -0.85524E-01   -0.85087E-01  7488   0.219E+01 0.547E-01
CGA:  49    -0.343058873653E+03   -0.55918E-01   -0.60906E-01  7488   0.182E+01-0.431E-01
CGA:  50    -0.343137989588E+03   -0.79116E-01   -0.79324E-01  7488   0.799E+00 0.103E+00
CGA:  51    -0.343169462520E+03   -0.31473E-01   -0.31935E-01  7488   0.417E+00 0.192E-01
CGA:  52    -0.343185772145E+03   -0.16310E-01   -0.16480E-01  7488   0.455E+00 0.887E-02
CGA:  53    -0.343212371007E+03   -0.26599E-01   -0.26056E-01  7488   0.427E+00 0.330E-01
CGA:  54    -0.343235592539E+03   -0.23222E-01   -0.23085E-01  7488   0.241E+00 0.163E-01
CGA:  55    -0.343245059133E+03   -0.94666E-02   -0.95618E-02  7488   0.179E+00 0.430E-02
CGA:  56    -0.343253224501E+03   -0.81654E-02   -0.81678E-02  7488   0.131E+00 0.408E-02
CGA:  57    -0.343260911140E+03   -0.76866E-02   -0.76078E-02  7488   0.155E+00 0.477E-02
CGA:  58    -0.343267453262E+03   -0.65421E-02   -0.65621E-02  7488   0.993E-01 0.149E-02
CGA:  59    -0.343272695269E+03   -0.52420E-02   -0.52263E-02  7488   0.501E-01 0.139E-02
CGA:  60    -0.343275071840E+03   -0.23766E-02   -0.23757E-02  7488   0.435E-01 0.412E-03
CGA:  61    -0.343277403960E+03   -0.23321E-02   -0.23275E-02  7488   0.422E-01 0.361E-03
CGA:  62    -0.343280002903E+03   -0.25989E-02   -0.26088E-02  7488   0.437E-01-0.537E-03
CGA:  63    -0.343281931933E+03   -0.19290E-02   -0.19307E-02  7488   0.257E-01 0.262E-03
CGA:  64    -0.343283058851E+03   -0.11269E-02   -0.11267E-02  7488   0.125E-01-0.753E-04
CGA:  65    -0.343283803978E+03   -0.74513E-03   -0.74362E-03  7488   0.142E-01 0.735E-04
CGA:  66    -0.343284635751E+03   -0.83177E-03   -0.83357E-03  7488   0.183E-01-0.123E-03
CGA:  67    -0.343285622953E+03   -0.98720E-03   -0.99009E-03  7488   0.116E-01-0.280E-03
CGA:  68    -0.343286136929E+03   -0.51398E-03   -0.51424E-03  7488   0.649E-02 0.326E-04
SDA:  69    -0.343286414575E+03   -0.27765E-03   -0.27707E-03  7488   0.420E-02-0.345E-04
CGA:  70    -0.343286506110E+03   -0.91535E-04   -0.91647E-04  7488   0.153E-02 0.223E-05
CGA:  71    -0.343286672087E+03   -0.16598E-03   -0.16410E-03  7488   0.542E-02 0.304E-04
CGA:  72    -0.343287425045E+03   -0.75296E-03   -0.75411E-03  7488   0.926E-02-0.464E-04
CGA:  73    -0.343287680273E+03   -0.25523E-03   -0.25616E-03  7488   0.160E-02 0.428E-04
CGA:  74    -0.343287769844E+03   -0.89572E-04   -0.89544E-04  7488   0.131E-02 0.109E-04
CGA:  75    -0.343287899609E+03   -0.12976E-03   -0.12940E-03  7488   0.163E-02 0.685E-05
CGA:  76    -0.343288000108E+03   -0.10050E-03   -0.10028E-03  7488   0.914E-03 0.263E-04
CGA:  77    -0.343288027079E+03   -0.26971E-04   -0.26832E-04  7488   0.363E-03 0.459E-05
CGA:  78    -0.343288071421E+03   -0.44342E-04   -0.44399E-04  7488   0.115E-02-0.167E-05
CGA:  79    -0.343288138631E+03   -0.67210E-04   -0.67271E-04  7488   0.113E-02-0.377E-04
CGA:  80    -0.343288171446E+03   -0.32816E-04   -0.32221E-04  7488   0.400E-03-0.707E-05
CGA:  81    -0.343288201959E+03   -0.30512E-04   -0.30896E-04  7488   0.350E-03-0.185E-04
CGA:  82    -0.343288215665E+03   -0.13706E-04   -0.13528E-04  7488   0.294E-03-0.965E-05
CGA:  83    -0.343288229761E+03   -0.14096E-04   -0.14033E-04  7488   0.439E-03-0.107E-04
CGA:  84    -0.343288263974E+03   -0.34214E-04   -0.35199E-04  7488   0.187E-03-0.361E-04
CGA:  85    -0.343288270555E+03   -0.65812E-05   -0.65380E-05  7488   0.129E-03-0.256E-05
   1 F= -.34328827E+03 E0= -.34326634E+03  d E =-.343288E+03  mag=    20.0000
       N       E                     dE             d eps       ncg     rms          ort
SDA:   1    -0.343275460873E+03    0.12803E-01    0.00000E+00  7488   0.724E+00 0.000E+00
CGA:   2    -0.343286631972E+03   -0.11171E-01   -0.11153E-01  7488   0.421E-01 0.895E-03
CGA:   3    -0.343287759561E+03   -0.11276E-02   -0.11297E-02  7488   0.401E-02-0.378E-04
CGA:   4    -0.343288132554E+03   -0.37299E-03   -0.37303E-03  7488   0.705E-02-0.433E-06
CGA:   5    -0.343288602738E+03   -0.47018E-03   -0.46996E-03  7488   0.491E-02 0.170E-04
CGA:   6    -0.343288764977E+03   -0.16224E-03   -0.16237E-03  7488   0.216E-02 0.720E-05
CGA:   7    -0.343288871175E+03   -0.10620E-03   -0.10622E-03  7488   0.958E-03 0.412E-05
CGA:   8    -0.343288925020E+03   -0.53845E-04   -0.53843E-04  7488   0.757E-03 0.893E-06
CGA:   9    -0.343288954242E+03   -0.29222E-04   -0.29220E-04  7488   0.563E-03 0.702E-07
CGA:  10    -0.343288974955E+03   -0.20713E-04   -0.20710E-04  7488   0.221E-03-0.112E-06
CGA:  11    -0.343288985479E+03   -0.10524E-04   -0.10520E-04  7488   0.489E-04-0.847E-06
CGA:  12    -0.343288989528E+03   -0.40493E-05   -0.40871E-05  7488   0.936E-04-0.120E-05
   2 F= -.34328899E+03 E0= -.34326712E+03  d E =-.718973E-03  mag=    20.0000
       N       E                     dE             d eps       ncg     rms          ort
SDA:   1    -0.343244812721E+03    0.44173E-01    0.00000E+00  7488   0.272E+00 0.000E+00
CGA:   2    -0.343251853281E+03   -0.70406E-02   -0.70412E-02  7488   0.172E+00 0.113E-04
CGA:   3    -0.343272037730E+03   -0.20184E-01   -0.20213E-01  7488   0.381E+00-0.452E-03
CGA:   4    -0.343284045024E+03   -0.12007E-01   -0.11977E-01  7488   0.796E-01 0.339E-03
CGA:   5    -0.343286394679E+03   -0.23497E-02   -0.23450E-02  7488   0.383E-01 0.748E-04
CGA:   6    -0.343290389973E+03   -0.39953E-02   -0.39988E-02  7488   0.342E-01-0.683E-04
CGA:   7    -0.343291656301E+03   -0.12663E-02   -0.12674E-02  7488   0.610E-02-0.960E-05
CGA:   8    -0.343292010927E+03   -0.35463E-03   -0.35464E-03  7488   0.620E-02-0.204E-05
CGA:   9    -0.343292207301E+03   -0.19637E-03   -0.19638E-03  7488   0.318E-02-0.140E-06
CGA:  10    -0.343292384886E+03   -0.17759E-03   -0.17758E-03  7488   0.221E-02-0.733E-07
CGA:  11    -0.343292483489E+03   -0.98603E-04   -0.98584E-04  7488   0.126E-02-0.207E-05
CGA:  12    -0.343292529995E+03   -0.46505E-04   -0.46484E-04  7488   0.557E-03-0.128E-05
CGA:  13    -0.343292555803E+03   -0.25809E-04   -0.25800E-04  7488   0.304E-03-0.132E-05
CGA:  14    -0.343292586903E+03   -0.31100E-04   -0.31247E-04  7488   0.419E-03-0.296E-05
CGA:  15    -0.343292597677E+03   -0.10774E-04   -0.10762E-04  7488   0.127E-03-0.410E-06
CGA:  16    -0.343292602292E+03   -0.46154E-05   -0.46183E-05  7488   0.576E-04 0.479E-07
CGA:  17    -0.343292612368E+03   -0.10076E-04   -0.10184E-04  7488   0.130E-03-0.890E-06
CGA:  18    -0.343292615745E+03   -0.33778E-05   -0.33697E-05  7488   0.328E-04-0.288E-06
   3 F= -.34329262E+03 E0= -.34327074E+03  d E =-.362622E-02  mag=    20.0000
       N       E                     dE             d eps       ncg     rms          ort
SDA:   1    -0.341171260465E+03    0.21214E+01    0.00000E+00  7488   0.609E+01 0.000E+00
CGA:   2    -0.341779354694E+03   -0.60809E+00   -0.60767E+00  7488   0.202E+02 0.476E-02
CGA:   3    -0.342731042837E+03   -0.95169E+00   -0.94778E+00  7488   0.648E+01 0.791E-02
CGA:   4    -0.342933833371E+03   -0.20279E+00   -0.20471E+00  7488   0.275E+01-0.337E-01
CGA:   5    -0.343061120078E+03   -0.12729E+00   -0.12763E+00  7488   0.324E+01 0.898E-02
CGA:   6    -0.343233753463E+03   -0.17263E+00   -0.17247E+00  7488   0.950E+00-0.156E-01
CGA:   7    -0.343266555546E+03   -0.32802E-01   -0.32880E-01  7488   0.255E+00-0.492E-03
CGA:   8    -0.343286455924E+03   -0.19900E-01   -0.19977E-01  7488   0.284E+00-0.268E-02
CGA:   9    -0.343298616520E+03   -0.12161E-01   -0.12168E-01  7488   0.193E+00 0.130E-03
CGA:  10    -0.343304954650E+03   -0.63381E-02   -0.63442E-02  7488   0.535E-01-0.455E-04
CGA:  11    -0.343307282019E+03   -0.23274E-02   -0.23295E-02  7488   0.486E-01 0.409E-04
CGA:  12    -0.343309687662E+03   -0.24056E-02   -0.24073E-02  7488   0.432E-01 0.129E-03
CGA:  13    -0.343311482021E+03   -0.17944E-02   -0.17945E-02  7488   0.142E-01-0.689E-05
CGA:  14    -0.343312468021E+03   -0.98600E-03   -0.98399E-03  7488   0.898E-02 0.897E-04
CGA:  15    -0.343312791491E+03   -0.32347E-03   -0.32347E-03  7488   0.493E-02-0.701E-06
CGA:  16    -0.343313028998E+03   -0.23751E-03   -0.23757E-03  7488   0.600E-02 0.333E-05
CGA:  17    -0.343313460348E+03   -0.43135E-03   -0.43128E-03  7488   0.414E-02 0.182E-05
CGA:  18    -0.343313567067E+03   -0.10672E-03   -0.10674E-03  7488   0.115E-02-0.700E-06
CGA:  19    -0.343313641169E+03   -0.74102E-04   -0.74048E-04  7488   0.150E-02 0.367E-05
CGA:  20    -0.343313815978E+03   -0.17481E-03   -0.17409E-03  7488   0.171E-02 0.114E-04
CGA:  21    -0.343313863992E+03   -0.48014E-04   -0.48062E-04  7488   0.760E-03 0.146E-05
CGA:  22    -0.343313899404E+03   -0.35412E-04   -0.35419E-04  7488   0.502E-03 0.683E-06
CGA:  23    -0.343313937934E+03   -0.38530E-04   -0.38464E-04  7488   0.844E-03 0.267E-05
CGA:  24    -0.343313975707E+03   -0.37773E-04   -0.37820E-04  7488   0.445E-03 0.276E-05
CGA:  25    -0.343313996325E+03   -0.20618E-04   -0.20632E-04  7488   0.206E-03 0.137E-05
CGA:  26    -0.343314008528E+03   -0.12203E-04   -0.12195E-04  7488   0.224E-03 0.157E-05
CGA:  27    -0.343314016191E+03   -0.76633E-05   -0.76922E-05  7488   0.131E-03 0.121E-05
CGA:  28    -0.343314026505E+03   -0.10314E-04   -0.10286E-04  7488   0.181E-03 0.997E-06
CGA:  29    -0.343314035507E+03   -0.90021E-05   -0.90062E-05  7488   0.666E-04 0.590E-06
   4 F= -.34331404E+03 E0= -.34329219E+03  d E =-.214198E-01  mag=    20.0000
       N       E                     dE             d eps       ncg     rms          ort
SDA:   1    -0.342110152152E+03    0.12039E+01    0.00000E+00  7488   0.344E+01 0.000E+00
CGA:   2    -0.342374568831E+03   -0.26442E+00   -0.26542E+00  7488   0.117E+02-0.327E-01
CGA:   3    -0.343017140261E+03   -0.64257E+00   -0.64267E+00  7488   0.342E+01-0.761E-01
CGA:   4    -0.343134232586E+03   -0.11709E+00   -0.11827E+00  7488   0.113E+01-0.212E-02
CGA:   5    -0.343219586866E+03   -0.85354E-01   -0.85724E-01  7488   0.189E+01-0.134E-01
CGA:   6    -0.343287113324E+03   -0.67526E-01   -0.67379E-01  7488   0.376E+00 0.533E-03
CGA:   7    -0.343300189679E+03   -0.13076E-01   -0.13186E-01  7488   0.120E+00-0.233E-03
CGA:   8    -0.343310761979E+03   -0.10572E-01   -0.10576E-01  7488   0.197E+00-0.844E-04
CGA:   9    -0.343316296035E+03   -0.55341E-02   -0.55490E-02  7488   0.807E-01-0.231E-03
CGA:  10    -0.343319728982E+03   -0.34329E-02   -0.34466E-02  7488   0.162E-01 0.319E-03
CGA:  11    -0.343321469897E+03   -0.17409E-02   -0.17427E-02  7488   0.251E-01-0.339E-04
CGA:  12    -0.343322916749E+03   -0.14469E-02   -0.14468E-02  7488   0.574E-02-0.419E-05
CGA:  13    -0.343323116299E+03   -0.19955E-03   -0.19962E-03  7488   0.405E-02-0.489E-05
CGA:  14    -0.343323381116E+03   -0.26482E-03   -0.26474E-03  7488   0.437E-02 0.400E-05
CGA:  15    -0.343323569999E+03   -0.18888E-03   -0.18894E-03  7488   0.251E-02 0.846E-06
CGA:  16    -0.343323676927E+03   -0.10693E-03   -0.10697E-03  7488   0.222E-02 0.154E-06
CGA:  17    -0.343323762187E+03   -0.85260E-04   -0.85267E-04  7488   0.643E-03 0.143E-06
CGA:  18    -0.343323799117E+03   -0.36930E-04   -0.36922E-04  7488   0.534E-03 0.152E-05
CGA:  19    -0.343323874972E+03   -0.75854E-04   -0.75367E-04  7488   0.719E-03 0.528E-05
CGA:  20    -0.343323899798E+03   -0.24827E-04   -0.24863E-04  7488   0.370E-03 0.852E-06
CGA:  21    -0.343323912601E+03   -0.12802E-04   -0.12821E-04  7488   0.171E-03 0.752E-06
CGA:  22    -0.343323924588E+03   -0.11987E-04   -0.11959E-04  7488   0.306E-03 0.177E-05
CGA:  23    -0.343323941777E+03   -0.17190E-04   -0.17192E-04  7488   0.243E-03 0.307E-05
CGA:  24    -0.343323950013E+03   -0.82358E-05   -0.82669E-05  7488   0.396E-04 0.115E-05
   5 F= -.34332395E+03 E0= -.34330213E+03  d E =-.991451E-02  mag=    20.0000
       N       E                     dE             d eps       ncg     rms          ort
SDA:   1    -0.341876391253E+03    0.14476E+01    0.00000E+00  7488   0.382E+01 0.000E+00
CGA:   2    -0.342415825259E+03   -0.53943E+00   -0.53544E+00  7488   0.154E+02 0.548E-01
CGA:   3    -0.342949232696E+03   -0.53341E+00   -0.53140E+00  7488   0.461E+01 0.402E-01
CGA:   4    -0.343094983696E+03   -0.14575E+00   -0.14310E+00  7488   0.157E+01 0.373E-01
CGA:   5    -0.343181951062E+03   -0.86967E-01   -0.87003E-01  7488   0.206E+01 0.441E-02
CGA:   6    -0.343280687333E+03   -0.98736E-01   -0.98799E-01  7488   0.539E+00 0.206E-02
CGA:   7    -0.343302139757E+03   -0.21452E-01   -0.21230E-01  7488   0.197E+00-0.155E-03
CGA:   8    -0.343311775880E+03   -0.96361E-02   -0.96371E-02  7488   0.201E+00 0.519E-04
CGA:   9    -0.343319685145E+03   -0.79093E-02   -0.79245E-02  7488   0.136E+00 0.545E-04
CGA:  10    -0.343325755536E+03   -0.60704E-02   -0.60804E-02  7488   0.502E-01 0.247E-03
CGA:  11    -0.343327595663E+03   -0.18401E-02   -0.18387E-02  7488   0.324E-01 0.385E-05
CGA:  12    -0.343329379029E+03   -0.17834E-02   -0.17834E-02  7488   0.172E-01-0.166E-04
CGA:  13    -0.343330357133E+03   -0.97810E-03   -0.97812E-03  7488   0.129E-01-0.930E-05
CGA:  14    -0.343331200412E+03   -0.84328E-03   -0.84299E-03  7488   0.859E-02 0.162E-04
CGA:  15    -0.343331429470E+03   -0.22906E-03   -0.22906E-03  7488   0.234E-02 0.167E-05
CGA:  16    -0.343331550554E+03   -0.12108E-03   -0.12109E-03  7488   0.323E-02 0.193E-05
CGA:  17    -0.343331777153E+03   -0.22660E-03   -0.22657E-03  7488   0.356E-02 0.208E-05
CGA:  18    -0.343331883317E+03   -0.10616E-03   -0.10619E-03  7488   0.663E-03-0.172E-06
CGA:  19    -0.343331927108E+03   -0.43790E-04   -0.43744E-04  7488   0.590E-03 0.325E-05
CGA:  20    -0.343331977743E+03   -0.50636E-04   -0.50513E-04  7488   0.100E-02 0.382E-05
CGA:  21    -0.343332021084E+03   -0.43341E-04   -0.43380E-04  7488   0.530E-03 0.278E-05
CGA:  22    -0.343332045189E+03   -0.24104E-04   -0.24114E-04  7488   0.278E-03 0.115E-05
CGA:  23    -0.343332056817E+03   -0.11629E-04   -0.11641E-04  7488   0.277E-03 0.963E-06
CGA:  24    -0.343332069335E+03   -0.12518E-04   -0.12529E-04  7488   0.142E-03 0.108E-05
CGA:  25    -0.343332082141E+03   -0.12806E-04   -0.12751E-04  7488   0.186E-03 0.145E-05
CGA:  26    -0.343332090053E+03   -0.79112E-05   -0.79285E-05  7488   0.743E-04 0.127E-05
   6 F= -.34333209E+03 E0= -.34331033E+03  d E =-.814004E-02  mag=    20.0000
       N       E                     dE             d eps       ncg     rms          ort
SDA:   1    -0.284142849233E+03    0.59189E+02    0.00000E+00  7488   0.351E+03 0.000E+00
CGA:   2    -0.294248954696E+03   -0.10106E+02   -0.10658E+02  7488   0.269E+03-0.134E+02
CGA:   3    -0.306515574507E+03   -0.12267E+02   -0.22102E+02  7488   0.134E+04-0.229E+03
CGA:   4    -0.306114803499E+03    0.40077E+00   -0.29594E+02  7488   0.102E+04-0.771E+03
CGA:   5    -0.325285995823E+03   -0.19171E+02   -0.10603E+02  7488   0.455E+02 0.131E+03
CGA:   6    -0.326334510937E+03   -0.10485E+01   -0.10373E+01  7488   0.107E+03-0.384E+00
CGA:   7    -0.331721550795E+03   -0.53870E+01   -0.53469E+01  7488   0.372E+03 0.134E+02
CGA:   8    -0.336676584734E+03   -0.49550E+01   -0.62135E+01  7488   0.169E+03-0.106E+03
CGA:   9    -0.338407932454E+03   -0.17313E+01   -0.16327E+01  7488   0.979E+02 0.378E+01
CGA:  10    -0.339772141656E+03   -0.13642E+01   -0.15837E+01  7488   0.658E+02-0.128E+02
CGA:  11    -0.340580037202E+03   -0.80790E+00   -0.76914E+00  7488   0.322E+02 0.256E+01
CGA:  12    -0.341030816259E+03   -0.45078E+00   -0.42300E+00  7488   0.223E+02 0.140E+01
CGA:  13    -0.341437017451E+03   -0.40620E+00   -0.40929E+00  7488   0.214E+02-0.240E+00
CGA:  14    -0.341725900376E+03   -0.28888E+00   -0.29533E+00  7488   0.177E+02-0.362E+00
CGA:  15    -0.342065029933E+03   -0.33913E+00   -0.36508E+00  7488   0.217E+02-0.404E+00
CGA:  16    -0.342360235920E+03   -0.29521E+00   -0.31196E+00  7488   0.612E+01-0.750E+00
CGA:  17    -0.342438326553E+03   -0.78091E-01   -0.79034E-01  7488   0.347E+01-0.543E-01
CGA:  18    -0.342528021849E+03   -0.89695E-01   -0.89874E-01  7488   0.496E+01 0.120E-02
CGA:  19    -0.342659323719E+03   -0.13130E+00   -0.13158E+00  7488   0.763E+01 0.141E-02
CGA:  20    -0.342855960031E+03   -0.19664E+00   -0.19730E+00  7488   0.761E+01 0.852E-02
CGA:  21    -0.342995724779E+03   -0.13976E+00   -0.14245E+00  7488   0.503E+01-0.642E-01
CGA:  22    -0.343087727096E+03   -0.92002E-01   -0.95290E-01  7488   0.231E+01-0.120E+00
CGA:  23    -0.343124324043E+03   -0.36597E-01   -0.40040E-01  7488   0.878E+00-0.826E-01
CGA:  24    -0.343146301733E+03   -0.21978E-01   -0.22096E-01  7488   0.716E+00 0.581E-02
CGA:  25    -0.343186864335E+03   -0.40563E-01   -0.41875E-01  7488   0.191E+01-0.486E-01
CGA:  26    -0.343228260382E+03   -0.41396E-01   -0.40541E-01  7488   0.144E+01-0.267E-02
CGA:  27    -0.343254344155E+03   -0.26084E-01   -0.26902E-01  7488   0.970E+00-0.116E-01
CGA:  28    -0.343274186757E+03   -0.19843E-01   -0.20455E-01  7488   0.539E+00 0.276E-02
CGA:  29    -0.343286174510E+03   -0.11988E-01   -0.12272E-01  7488   0.379E+00 0.533E-02
CGA:  30    -0.343295926159E+03   -0.97516E-02   -0.98321E-02  7488   0.158E+00 0.515E-02
CGA:  31    -0.343301422801E+03   -0.54966E-02   -0.54891E-02  7488   0.253E+00 0.121E-02
CGA:  32    -0.343314796105E+03   -0.13373E-01   -0.13731E-01  7488   0.296E+00-0.146E-01
CGA:  33    -0.343321159183E+03   -0.63631E-02   -0.63320E-02  7488   0.181E+00-0.363E-03
CGA:  34    -0.343325627236E+03   -0.44681E-02   -0.44769E-02  7488   0.114E+00 0.278E-03
SDA:  35    -0.343328988795E+03   -0.33616E-02   -0.33643E-02  7488   0.114E+00 0.880E-03
CGA:  36    -0.343331868999E+03   -0.28802E-02   -0.28817E-02  7488   0.480E-01 0.733E-04
CGA:  37    -0.343334296178E+03   -0.24272E-02   -0.24275E-02  7488   0.666E-01-0.928E-05
CGA:  38    -0.343339748889E+03   -0.54527E-02   -0.54456E-02  7488   0.164E-01 0.137E-03
CGA:  39    -0.343340646082E+03   -0.89719E-03   -0.89627E-03  7488   0.163E-01 0.402E-04
CGA:  40    -0.343342151516E+03   -0.15054E-02   -0.15094E-02  7488   0.350E-01-0.829E-04
CGA:  41    -0.343343568420E+03   -0.14169E-02   -0.14169E-02  7488   0.585E-02-0.329E-05
CGA:  42    -0.343343819828E+03   -0.25141E-03   -0.25133E-03  7488   0.522E-02 0.882E-05
CGA:  43    -0.343344041112E+03   -0.22128E-03   -0.22130E-03  7488   0.501E-02-0.400E-05
CGA:  44    -0.343344465613E+03   -0.42450E-03   -0.42283E-03  7488   0.448E-02 0.361E-04
CGA:  45    -0.343344883056E+03   -0.41744E-03   -0.43104E-03  7488   0.341E-02-0.274E-03
CGA:  46    -0.343345024991E+03   -0.14194E-03   -0.14193E-03  7488   0.161E-02-0.510E-05
CGA:  47    -0.343345096876E+03   -0.71885E-04   -0.71887E-04  7488   0.144E-02-0.685E-05
CGA:  48    -0.343345166844E+03   -0.69968E-04   -0.69985E-04  7488   0.195E-02-0.852E-05
CGA:  49    -0.343345379319E+03   -0.21248E-03   -0.22134E-03  7488   0.119E-02-0.139E-03
CGA:  50    -0.343345417331E+03   -0.38011E-04   -0.37901E-04  7488   0.458E-03-0.757E-05
CGA:  51    -0.343345463110E+03   -0.45779E-04   -0.45771E-04  7488   0.143E-02-0.103E-05
CGA:  52    -0.343345525055E+03   -0.61945E-04   -0.61985E-04  7488   0.665E-03 0.293E-05
CGA:  53    -0.343345556655E+03   -0.31600E-04   -0.31603E-04  7488   0.528E-03 0.161E-05
CGA:  54    -0.343345587773E+03   -0.31118E-04   -0.31083E-04  7488   0.291E-03 0.295E-05
CGA:  55    -0.343345600431E+03   -0.12658E-04   -0.12676E-04  7488   0.258E-03 0.160E-05
CGA:  56    -0.343345621523E+03   -0.21093E-04   -0.20843E-04  7488   0.494E-03 0.680E-05
CGA:  57    -0.343345645543E+03   -0.24019E-04   -0.24044E-04  7488   0.207E-03 0.747E-05
CGA:  58    -0.343345652047E+03   -0.65042E-05   -0.65521E-05  7488   0.105E-03 0.165E-05
   7 F= -.34334565E+03 E0= -.34332415E+03  d E =-.135620E-01  mag=    20.0000
       N       E                     dE             d eps       ncg     rms          ort
SDA:   1    -0.249680561462E+03    0.93665E+02    0.00000E+00  7488   0.555E+03 0.000E+00
CGA:   2    -0.269559633226E+03   -0.19879E+02   -0.17747E+02  7488   0.413E+03 0.208E+02
CGA:   3    -0.293291981811E+03   -0.23732E+02   -0.31094E+02  7488   0.116E+04-0.210E+03
CGA:   4    -0.295720324622E+03   -0.24283E+01   -0.24582E+02  7488   0.116E+04-0.809E+03
CGA:   5    -0.312190972612E+03   -0.16471E+02   -0.13513E+02  7488   0.197E+03-0.434E+03
CGA:   6    -0.318413650173E+03   -0.62227E+01   -0.62856E+01  7488   0.288E+03-0.119E+02
CGA:   7    -0.324361339596E+03   -0.59477E+01   -0.63913E+01  7488   0.250E+03-0.185E+02
CGA:   8    -0.332220565344E+03   -0.78592E+01   -0.86098E+01  7488   0.190E+03 0.176E+02
CGA:   9    -0.335899195160E+03   -0.36786E+01   -0.36537E+01  7488   0.884E+02-0.170E+01
CGA:  10    -0.338596102829E+03   -0.26969E+01   -0.27133E+01  7488   0.648E+02-0.592E+00
CGA:  11    -0.340229664062E+03   -0.16336E+01   -0.16660E+01  7488   0.435E+02-0.835E+00
CGA:  12    -0.341471926788E+03   -0.12423E+01   -0.13138E+01  7488   0.224E+02 0.529E+00
CGA:  13    -0.342019531023E+03   -0.54760E+00   -0.56375E+00  7488   0.168E+02-0.191E+00
CGA:  14    -0.342475947855E+03   -0.45642E+00   -0.46716E+00  7488   0.581E+01-0.167E-02
CGA:  15    -0.342661806978E+03   -0.18586E+00   -0.18932E+00  7488   0.511E+01 0.947E-01
CGA:  16    -0.342853301280E+03   -0.19149E+00   -0.19391E+00  7488   0.437E+01 0.283E+00
CGA:  17    -0.343029852318E+03   -0.17655E+00   -0.17706E+00  7488   0.353E+01 0.999E-01
CGA:  18    -0.343114957446E+03   -0.85105E-01   -0.88519E-01  7488   0.118E+01-0.314E-01
CGA:  19    -0.343159091587E+03   -0.44134E-01   -0.44204E-01  7488   0.760E+00 0.158E-01
CGA:  20    -0.343188151848E+03   -0.29060E-01   -0.29110E-01  7488   0.590E+00 0.121E-01
CGA:  21    -0.343215275440E+03   -0.27124E-01   -0.27118E-01  7488   0.540E+00 0.615E-03
CGA:  22    -0.343237255938E+03   -0.21980E-01   -0.21948E-01  7488   0.421E+00 0.215E-01
CGA:  23    -0.343254115185E+03   -0.16859E-01   -0.16878E-01  7488   0.203E+00 0.686E-02
CGA:  24    -0.343261502183E+03   -0.73870E-02   -0.74200E-02  7488   0.128E+00 0.342E-02
CGA:  25    -0.343268645051E+03   -0.71429E-02   -0.71338E-02  7488   0.146E+00 0.515E-03
CGA:  26    -0.343275808831E+03   -0.71638E-02   -0.70984E-02  7488   0.135E+00 0.543E-02
CGA:  27    -0.343280820127E+03   -0.50113E-02   -0.50181E-02  7488   0.553E-01 0.606E-03
CGA:  28    -0.343283557756E+03   -0.27376E-02   -0.27335E-02  7488   0.520E-01 0.354E-03
CGA:  29    -0.343285909581E+03   -0.23518E-02   -0.23497E-02  7488   0.372E-01 0.349E-03
CGA:  30    -0.343287810785E+03   -0.19012E-02   -0.18943E-02  7488   0.309E-01 0.513E-03
CGA:  31    -0.343289012537E+03   -0.12018E-02   -0.12026E-02  7488   0.173E-01 0.132E-03
CGA:  32    -0.343289824604E+03   -0.81207E-03   -0.81099E-03  7488   0.103E-01 0.136E-03
CGA:  33    -0.343290372424E+03   -0.54782E-03   -0.54661E-03  7488   0.124E-01 0.839E-04
CGA:  34    -0.343290971168E+03   -0.59874E-03   -0.59826E-03  7488   0.797E-02 0.663E-04
SDA:  35    -0.343291346363E+03   -0.37519E-03   -0.37494E-03  7488   0.557E-02 0.457E-04
CGA:  36    -0.343291445357E+03   -0.98995E-04   -0.99142E-04  7488   0.133E-02-0.852E-05
CGA:  37    -0.343291650073E+03   -0.20472E-03   -0.20392E-03  7488   0.579E-02 0.623E-05
CGA:  38    -0.343292041315E+03   -0.39124E-03   -0.39295E-03  7488   0.915E-02-0.689E-04
CGA:  39    -0.343292598881E+03   -0.55757E-03   -0.55601E-03  7488   0.363E-02 0.773E-04
CGA:  40    -0.343292749334E+03   -0.15045E-03   -0.15017E-03  7488   0.158E-02-0.172E-04
CGA:  41    -0.343292998732E+03   -0.24940E-03   -0.26006E-03  7488   0.470E-02-0.108E-03
CGA:  42    -0.343293120853E+03   -0.12212E-03   -0.12313E-03  7488   0.126E-02-0.341E-04
CGA:  43    -0.343293180160E+03   -0.59307E-04   -0.59342E-04  7488   0.133E-02-0.588E-07
CGA:  44    -0.343293290042E+03   -0.10988E-03   -0.11041E-03  7488   0.390E-02-0.155E-04
CGA:  45    -0.343293501496E+03   -0.21145E-03   -0.21148E-03  7488   0.120E-02-0.171E-04
CGA:  46    -0.343293534989E+03   -0.33493E-04   -0.33659E-04  7488   0.766E-03 0.717E-06
CGA:  47    -0.343293579047E+03   -0.44058E-04   -0.44045E-04  7488   0.825E-03 0.341E-05
CGA:  48    -0.343293625295E+03   -0.46248E-04   -0.46233E-04  7488   0.104E-02 0.617E-05
CGA:  49    -0.343293670070E+03   -0.44775E-04   -0.44917E-04  7488   0.691E-03 0.921E-05
CGA:  50    -0.343293697871E+03   -0.27801E-04   -0.27835E-04  7488   0.377E-03 0.323E-05
CGA:  51    -0.343293714949E+03   -0.17078E-04   -0.17081E-04  7488   0.375E-03 0.135E-06
CGA:  52    -0.343293730182E+03   -0.15234E-04   -0.15227E-04  7488   0.285E-03-0.116E-05
CGA:  53    -0.343293751872E+03   -0.21690E-04   -0.21725E-04  7488   0.446E-03-0.206E-05
CGA:  54    -0.343293769919E+03   -0.18047E-04   -0.18033E-04  7488   0.289E-03-0.166E-05
CGA:  55    -0.343293778438E+03   -0.85190E-05   -0.85047E-05  7488   0.756E-04-0.732E-06
   8 F= -.34329378E+03 E0= -.34327246E+03  d E =0.518736E-01  mag=    20.0000
       N       E                     dE             d eps       ncg     rms          ort
SDA:   1    -0.302403042033E+03    0.40891E+02    0.00000E+00  7488   0.186E+03 0.000E+00
CGA:   2    -0.309987879792E+03   -0.75848E+01   -0.79442E+01  7488   0.186E+03 0.153E+02
CGA:   3    -0.321445339589E+03   -0.11457E+02   -0.13540E+02  7488   0.531E+03-0.103E+03
CGA:   4    -0.326872907153E+03   -0.54276E+01   -0.96381E+01  7488   0.237E+03-0.207E+03
CGA:   5    -0.330289725615E+03   -0.34168E+01   -0.24750E+01  7488   0.584E+02 0.343E+02
CGA:   6    -0.331545178313E+03   -0.12555E+01   -0.10999E+01  7488   0.652E+02 0.601E+01
CGA:   7    -0.334068657039E+03   -0.25235E+01   -0.26421E+01  7488   0.163E+03 0.349E+01
CGA:   8    -0.338288571236E+03   -0.42199E+01   -0.42567E+01  7488   0.115E+03-0.108E+01
CGA:   9    -0.341157447821E+03   -0.28689E+01   -0.25325E+01  7488   0.492E+02 0.110E+02
CGA:  10    -0.341748914719E+03   -0.59147E+00   -0.32106E+00  7488   0.312E+02 0.456E+02
CGA:  11    -0.342174607861E+03   -0.42569E+00   -0.24495E+00  7488   0.135E+02 0.215E+02
CGA:  12    -0.342442192249E+03   -0.26758E+00   -0.18260E+00  7488   0.409E+01 0.474E+01
CGA:  13    -0.342570356127E+03   -0.12816E+00   -0.12203E+00  7488   0.513E+01 0.841E-01
CGA:  14    -0.342676813535E+03   -0.10646E+00   -0.10830E+00  7488   0.708E+01-0.308E-01
CGA:  15    -0.342814378299E+03   -0.13756E+00   -0.14604E+00  7488   0.687E+01-0.103E+00
CGA:  16    -0.342923332423E+03   -0.10895E+00   -0.11569E+00  7488   0.443E+01-0.196E+00
CGA:  17    -0.343010994282E+03   -0.87662E-01   -0.90429E-01  7488   0.313E+01-0.291E-01
CGA:  18    -0.343070390252E+03   -0.59396E-01   -0.62390E-01  7488   0.156E+01-0.394E-01
CGA:  19    -0.343108453579E+03   -0.38063E-01   -0.38334E-01  7488   0.150E+01 0.419E-02
CGA:  20    -0.343177432364E+03   -0.68979E-01   -0.68518E-01  7488   0.241E+01 0.277E-01
CGA:  21    -0.343245250335E+03   -0.67818E-01   -0.68070E-01  7488   0.133E+01 0.119E-01
CGA:  22    -0.343272958139E+03   -0.27708E-01   -0.28015E-01  7488   0.315E+00-0.215E-02
CGA:  23    -0.343282271380E+03   -0.93132E-02   -0.93082E-02  7488   0.336E+00-0.547E-03
CGA:  24    -0.343295372167E+03   -0.13101E-01   -0.13119E-01  7488   0.280E+00-0.201E-02
CGA:  25    -0.343304499604E+03   -0.91274E-02   -0.91281E-02  7488   0.241E+00 0.616E-03
CGA:  26    -0.343311914170E+03   -0.74146E-02   -0.74184E-02  7488   0.190E+00 0.570E-03
CGA:  27    -0.343319987351E+03   -0.80732E-02   -0.80470E-02  7488   0.130E+00 0.204E-02
CGA:  28    -0.343322490762E+03   -0.25034E-02   -0.25095E-02  7488   0.326E-01-0.950E-04
CGA:  29    -0.343323639577E+03   -0.11488E-02   -0.11482E-02  7488   0.320E-01 0.153E-03
CGA:  30    -0.343325758357E+03   -0.21188E-02   -0.21100E-02  7488   0.868E-01 0.262E-03
CGA:  31    -0.343329119001E+03   -0.33606E-02   -0.33608E-02  7488   0.399E-01-0.297E-04
CGA:  32    -0.343330199254E+03   -0.10803E-02   -0.10820E-02  7488   0.203E-01 0.615E-04
CGA:  33    -0.343330787660E+03   -0.58841E-03   -0.58884E-03  7488   0.125E-01 0.381E-04
CGA:  34    -0.343331335470E+03   -0.54781E-03   -0.54696E-03  7488   0.152E-01 0.697E-04
CGA:  35    -0.343332111788E+03   -0.77632E-03   -0.77467E-03  7488   0.209E-01 0.889E-04
CGA:  36    -0.343332720187E+03   -0.60840E-03   -0.60841E-03  7488   0.746E-02 0.265E-04
CGA:  37    -0.343332930257E+03   -0.21007E-03   -0.21008E-03  7488   0.378E-02 0.913E-05
CGA:  38    -0.343333090140E+03   -0.15988E-03   -0.15983E-03  7488   0.527E-02 0.604E-05
CGA:  39    -0.343333350496E+03   -0.26036E-03   -0.26023E-03  7488   0.506E-02 0.787E-05
CGA:  40    -0.343333520145E+03   -0.16965E-03   -0.16968E-03  7488   0.251E-02 0.714E-05
CGA:  41    -0.343333595488E+03   -0.75343E-04   -0.75378E-04  7488   0.195E-02 0.319E-05
SDA:  42    -0.343333683268E+03   -0.87780E-04   -0.87671E-04  7488   0.108E-02 0.923E-05
CGA:  43    -0.343333721600E+03   -0.38332E-04   -0.38333E-04  7488   0.828E-03 0.653E-06
CGA:  44    -0.343333771746E+03   -0.50146E-04   -0.50059E-04  7488   0.143E-02 0.262E-05
CGA:  45    -0.343333855652E+03   -0.83906E-04   -0.83786E-04  7488   0.671E-03 0.504E-05
CGA:  46    -0.343333898241E+03   -0.42589E-04   -0.42504E-04  7488   0.682E-03 0.280E-05
CGA:  47    -0.343333929704E+03   -0.31462E-04   -0.31460E-04  7488   0.503E-03-0.912E-07
CGA:  48    -0.343333960258E+03   -0.30555E-04   -0.30559E-04  7488   0.404E-03-0.105E-05
CGA:  49    -0.343334002608E+03   -0.42349E-04   -0.42632E-04  7488   0.323E-03-0.517E-05
CGA:  50    -0.343334020206E+03   -0.17598E-04   -0.17599E-04  7488   0.228E-03-0.622E-06
CGA:  51    -0.343334030706E+03   -0.10500E-04   -0.10500E-04  7488   0.331E-03-0.378E-06
CGA:  52    -0.343334057000E+03   -0.26294E-04   -0.26325E-04  7488   0.494E-03-0.148E-05
CGA:  53    -0.343334086869E+03   -0.29869E-04   -0.29870E-04  7488   0.213E-03-0.546E-06
CGA:  54    -0.343334092760E+03   -0.58902E-05   -0.58888E-05  7488   0.853E-04-0.153E-06
CGA:  55    -0.343334107325E+03   -0.14565E-04   -0.14410E-04  7488   0.275E-03 0.801E-06
CGA:  56    -0.343334123410E+03   -0.16085E-04   -0.16095E-04  7488   0.805E-04-0.169E-05
CGA:  57    -0.343334126655E+03   -0.32444E-05   -0.32401E-05  7488   0.107E-03-0.780E-06
   9 F= -.34333413E+03 E0= -.34331271E+03  d E =-.403482E-01  mag=    20.0000
       N       E                     dE             d eps       ncg     rms          ort
SDA:   1    -0.333905193276E+03    0.94289E+01    0.00000E+00  7488   0.263E+02 0.000E+00
CGA:   2    -0.336888053255E+03   -0.29829E+01   -0.37223E+01  7488   0.120E+03-0.938E+01
CGA:   3    -0.339046349366E+03   -0.21583E+01   -0.21356E+01  7488   0.114E+03 0.491E+00
CGA:   4    -0.340906877427E+03   -0.18605E+01   -0.25843E+01  7488   0.251E+02-0.196E+02
CGA:   5    -0.341539883758E+03   -0.63301E+00   -0.69174E+00  7488   0.148E+02-0.601E-01
CGA:   6    -0.342214753420E+03   -0.67487E+00   -0.66626E+00  7488   0.131E+02-0.363E+00
CGA:   7    -0.342864953405E+03   -0.65020E+00   -0.65026E+00  7488   0.621E+01 0.166E-01
CGA:   8    -0.342990309592E+03   -0.12536E+00   -0.12130E+00  7488   0.149E+01 0.178E+00
CGA:   9    -0.343091485970E+03   -0.10118E+00   -0.10171E+00  7488   0.223E+01-0.257E-01
CGA:  10    -0.343198531632E+03   -0.10705E+00   -0.10709E+00  7488   0.186E+01 0.714E-02
CGA:  11    -0.343243880582E+03   -0.45349E-01   -0.46559E-01  7488   0.413E+00-0.231E-01
CGA:  12    -0.343265292384E+03   -0.21412E-01   -0.21387E-01  7488   0.506E+00 0.613E-02
CGA:  13    -0.343285150545E+03   -0.19858E-01   -0.19892E-01  7488   0.340E+00 0.749E-03
CGA:  14    -0.343302319704E+03   -0.17169E-01   -0.17168E-01  7488   0.190E+00 0.730E-03
CGA:  15    -0.343313875597E+03   -0.11556E-01   -0.11562E-01  7488   0.129E+00-0.356E-03
CGA:  16    -0.343317842491E+03   -0.39669E-02   -0.39678E-02  7488   0.497E-01 0.230E-04
CGA:  17    -0.343319982596E+03   -0.21401E-02   -0.21433E-02  7488   0.458E-01 0.203E-03
CGA:  18    -0.343323846623E+03   -0.38640E-02   -0.38526E-02  7488   0.611E-01 0.292E-03
CGA:  19    -0.343325607393E+03   -0.17608E-02   -0.17639E-02  7488   0.186E-01-0.471E-04
CGA:  20    -0.343326269845E+03   -0.66245E-03   -0.66147E-03  7488   0.592E-02-0.142E-04
CGA:  21    -0.343326973603E+03   -0.70376E-03   -0.70265E-03  7488   0.161E-01 0.164E-04
CGA:  22    -0.343327689551E+03   -0.71595E-03   -0.71644E-03  7488   0.762E-02 0.207E-04
CGA:  23    -0.343327912073E+03   -0.22252E-03   -0.22301E-03  7488   0.173E-02-0.766E-05
CGA:  24    -0.343328071803E+03   -0.15973E-03   -0.15974E-03  7488   0.397E-02-0.834E-06
CGA:  25    -0.343328221950E+03   -0.15015E-03   -0.15017E-03  7488   0.239E-02-0.323E-05
CGA:  26    -0.343328344792E+03   -0.12284E-03   -0.12284E-03  7488   0.102E-02-0.435E-05
CGA:  27    -0.343328401349E+03   -0.56557E-04   -0.56558E-04  7488   0.876E-03-0.337E-06
CGA:  28    -0.343328433183E+03   -0.31834E-04   -0.31861E-04  7488   0.482E-03 0.114E-05
CGA:  29    -0.343328470525E+03   -0.37342E-04   -0.37228E-04  7488   0.594E-03 0.389E-05
CGA:  30    -0.343328510437E+03   -0.39912E-04   -0.39844E-04  7488   0.495E-03 0.465E-05
CGA:  31    -0.343328523640E+03   -0.13203E-04   -0.13256E-04  7488   0.162E-03 0.162E-05
SDA:  32    -0.343328532635E+03   -0.89946E-05   -0.89897E-05  7488   0.187E-03 0.115E-05
  10 F= -.34332853E+03 E0= -.34330707E+03  d E =0.559402E-02  mag=    20.0000
       N       E                     dE             d eps       ncg     rms          ort
SDA:   1    -0.336329197317E+03    0.69993E+01    0.00000E+00  7488   0.231E+02 0.000E+00
CGA:   2    -0.337698885783E+03   -0.13697E+01   -0.13674E+01  7488   0.483E+02 0.161E+00
CGA:   3    -0.340860487293E+03   -0.31616E+01   -0.32141E+01  7488   0.384E+02-0.363E+01
CGA:   4    -0.341938433657E+03   -0.10779E+01   -0.10127E+01  7488   0.139E+02 0.124E+01
CGA:   5    -0.342360319329E+03   -0.42189E+00   -0.42663E+00  7488   0.728E+01 0.733E-03
CGA:   6    -0.342751208401E+03   -0.39089E+00   -0.39171E+00  7488   0.132E+02-0.132E+00
CGA:   7    -0.343063729545E+03   -0.31252E+00   -0.31413E+00  7488   0.308E+01-0.204E-01
CGA:   8    -0.343176825494E+03   -0.11310E+00   -0.11278E+00  7488   0.164E+01-0.156E-02
CGA:   9    -0.343214294510E+03   -0.37469E-01   -0.36660E-01  7488   0.717E+00 0.211E-01
CGA:  10    -0.343249237552E+03   -0.34943E-01   -0.34930E-01  7488   0.112E+01 0.791E-02
CGA:  11    -0.343292733831E+03   -0.43496E-01   -0.43669E-01  7488   0.594E+00 0.624E-02
CGA:  12    -0.343309636853E+03   -0.16903E-01   -0.17145E-01  7488   0.119E+00-0.159E-02
CGA:  13    -0.343313928868E+03   -0.42920E-02   -0.43331E-02  7488   0.167E+00 0.111E-02
CGA:  14    -0.343324538825E+03   -0.10610E-01   -0.10639E-01  7488   0.130E+00-0.131E-02
CGA:  15    -0.343329720136E+03   -0.51813E-02   -0.51824E-02  7488   0.380E-01 0.385E-04
CGA:  16    -0.343330894199E+03   -0.11741E-02   -0.11840E-02  7488   0.222E-01 0.199E-04
CGA:  17    -0.343332560411E+03   -0.16662E-02   -0.16652E-02  7488   0.150E-01 0.256E-04
CGA:  18    -0.343333764851E+03   -0.12044E-02   -0.11883E-02  7488   0.171E-01 0.441E-03
CGA:  19    -0.343334400625E+03   -0.63577E-03   -0.63502E-03  7488   0.832E-02-0.934E-05
CGA:  20    -0.343334701306E+03   -0.30068E-03   -0.30204E-03  7488   0.377E-02 0.170E-04
CGA:  21    -0.343334881294E+03   -0.17999E-03   -0.17998E-03  7488   0.427E-02 0.629E-05
CGA:  22    -0.343335111737E+03   -0.23044E-03   -0.23037E-03  7488   0.423E-02 0.432E-05
CGA:  23    -0.343335407762E+03   -0.29602E-03   -0.29453E-03  7488   0.152E-02 0.553E-04
CGA:  24    -0.343335470262E+03   -0.62501E-04   -0.62527E-04  7488   0.786E-03 0.121E-05
CGA:  25    -0.343335530704E+03   -0.60442E-04   -0.60218E-04  7488   0.160E-02 0.656E-05
CGA:  26    -0.343335628445E+03   -0.97741E-04   -0.97688E-04  7488   0.490E-03 0.482E-05
CGA:  27    -0.343335646816E+03   -0.18371E-04   -0.18408E-04  7488   0.295E-03 0.177E-05
CGA:  28    -0.343335660481E+03   -0.13665E-04   -0.13675E-04  7488   0.318E-03 0.190E-05
CGA:  29    -0.343335677211E+03   -0.16730E-04   -0.16720E-04  7488   0.216E-03 0.277E-05
CGA:  30    -0.343335690816E+03   -0.13606E-04   -0.13559E-04  7488   0.190E-03 0.298E-05
CGA:  31    -0.343335699555E+03   -0.87381E-05   -0.87486E-05  7488   0.986E-04 0.162E-05
  11 F= -.34333570E+03 E0= -.34331426E+03  d E =-.716692E-02  mag=    20.0000
       N       E                     dE             d eps       ncg     rms          ort
SDA:   1    -0.343215289546E+03    0.12040E+00    0.00000E+00  7488   0.530E+00 0.000E+00
CGA:   2    -0.343233861438E+03   -0.18572E-01   -0.18550E-01  7488   0.537E+00-0.411E-04
CGA:   3    -0.343285758595E+03   -0.51897E-01   -0.51942E-01  7488   0.775E+00-0.952E-03
CGA:   4    -0.343308215143E+03   -0.22457E-01   -0.22512E-01  7488   0.193E+00-0.659E-03
CGA:   5    -0.343315365344E+03   -0.71502E-02   -0.71345E-02  7488   0.144E+00-0.138E-03
CGA:   6    -0.343327201810E+03   -0.11836E-01   -0.11829E-01  7488   0.684E-01 0.207E-03
CGA:   7    -0.343329822297E+03   -0.26205E-02   -0.26179E-02  7488   0.236E-01-0.309E-04
CGA:   8    -0.343331374570E+03   -0.15523E-02   -0.15537E-02  7488   0.198E-01-0.659E-04
CGA:   9    -0.343331900644E+03   -0.52607E-03   -0.52586E-03  7488   0.767E-02-0.200E-06
CGA:  10    -0.343332436789E+03   -0.53615E-03   -0.53602E-03  7488   0.814E-02 0.451E-05
CGA:  11    -0.343332726024E+03   -0.28923E-03   -0.28919E-03  7488   0.271E-02 0.143E-06
CGA:  12    -0.343332826272E+03   -0.10025E-03   -0.10029E-03  7488   0.129E-02-0.225E-06
CGA:  13    -0.343332950167E+03   -0.12390E-03   -0.12410E-03  7488   0.150E-02-0.442E-05
CGA:  14    -0.343333023003E+03   -0.72836E-04   -0.72824E-04  7488   0.735E-03-0.364E-05
CGA:  15    -0.343333040834E+03   -0.17830E-04   -0.17822E-04  7488   0.241E-03-0.589E-06
CGA:  16    -0.343333059319E+03   -0.18485E-04   -0.18480E-04  7488   0.308E-03 0.138E-08
CGA:  17    -0.343333079609E+03   -0.20290E-04   -0.20271E-04  7488   0.303E-03 0.131E-05
CGA:  18    -0.343333089955E+03   -0.10346E-04   -0.10358E-04  7488   0.922E-04 0.664E-06
CGA:  19    -0.343333096552E+03   -0.65965E-05   -0.65910E-05  7488   0.961E-04 0.157E-06
  12 F= -.34333310E+03 E0= -.34331165E+03  d E =0.260300E-02  mag=    20.0000
       N       E                     dE             d eps       ncg     rms          ort
SDA:   1    -0.339627676028E+03    0.37054E+01    0.00000E+00  7488   0.124E+02 0.000E+00
CGA:   2    -0.340240311801E+03   -0.61264E+00   -0.61245E+00  7488   0.254E+02-0.348E-01
CGA:   3    -0.342293148572E+03   -0.20528E+01   -0.20534E+01  7488   0.116E+02-0.126E+00
CGA:   4    -0.342611855697E+03   -0.31871E+00   -0.30969E+00  7488   0.516E+01 0.179E+00
CGA:   5    -0.342915725061E+03   -0.30387E+00   -0.30256E+00  7488   0.403E+01 0.134E+00
CGA:   6    -0.343132145591E+03   -0.21642E+00   -0.21642E+00  7488   0.317E+01-0.481E-02
CGA:   7    -0.343222160640E+03   -0.90015E-01   -0.89380E-01  7488   0.124E+01 0.122E-01
CGA:   8    -0.343255767781E+03   -0.33607E-01   -0.33079E-01  7488   0.299E+00 0.913E-02
CGA:   9    -0.343279667816E+03   -0.23900E-01   -0.23871E-01  7488   0.608E+00 0.862E-03
CGA:  10    -0.343302021475E+03   -0.22354E-01   -0.22598E-01  7488   0.128E+00 0.244E-02
CGA:  11    -0.343306931405E+03   -0.49099E-02   -0.49087E-02  7488   0.908E-01-0.202E-04
CGA:  12    -0.343310558770E+03   -0.36274E-02   -0.36390E-02  7488   0.806E-01 0.311E-03
CGA:  13    -0.343313940162E+03   -0.33814E-02   -0.33875E-02  7488   0.325E-01 0.255E-03
CGA:  14    -0.343316572509E+03   -0.26323E-02   -0.26291E-02  7488   0.320E-01 0.807E-04
CGA:  15    -0.343317481046E+03   -0.90854E-03   -0.91512E-03  7488   0.869E-02-0.887E-04
CGA:  16    -0.343318001429E+03   -0.52038E-03   -0.52067E-03  7488   0.842E-02-0.229E-04
CGA:  17    -0.343318367831E+03   -0.36640E-03   -0.36685E-03  7488   0.101E-01 0.241E-04
CGA:  18    -0.343318921099E+03   -0.55327E-03   -0.55303E-03  7488   0.568E-02 0.318E-04
CGA:  19    -0.343319139936E+03   -0.21884E-03   -0.21902E-03  7488   0.166E-02 0.480E-05
CGA:  20    -0.343319233752E+03   -0.93816E-04   -0.93747E-04  7488   0.231E-02 0.586E-05
CGA:  21    -0.343319462992E+03   -0.22924E-03   -0.22883E-03  7488   0.284E-02 0.697E-05
CGA:  22    -0.343319568725E+03   -0.10573E-03   -0.10588E-03  7488   0.701E-03 0.348E-05
CGA:  23    -0.343319624536E+03   -0.55811E-04   -0.55705E-04  7488   0.902E-03 0.290E-05
CGA:  24    -0.343319662536E+03   -0.38000E-04   -0.38040E-04  7488   0.731E-03 0.179E-05
CGA:  25    -0.343319705420E+03   -0.42884E-04   -0.42872E-04  7488   0.733E-03 0.172E-05
CGA:  26    -0.343319731632E+03   -0.26212E-04   -0.26253E-04  7488   0.362E-03 0.122E-05
CGA:  27    -0.343319747527E+03   -0.15895E-04   -0.15912E-04  7488   0.174E-03 0.156E-05
CGA:  28    -0.343319757939E+03   -0.10412E-04   -0.10395E-04  7488   0.128E-03 0.169E-05
CGA:  29    -0.343319770079E+03   -0.12140E-04   -0.12040E-04  7488   0.221E-03 0.210E-05
CGA:  30    -0.343319779075E+03   -0.89966E-05   -0.90154E-05  7488   0.619E-04 0.110E-05
  13 F= -.34331978E+03 E0= -.34329834E+03  d E =0.133175E-01  mag=    20.0000
       N       E                     dE             d eps       ncg     rms          ort
SDA:   1    -0.337236539316E+03    0.60832E+01    0.00000E+00  7488   0.207E+02 0.000E+00
CGA:   2    -0.338446352456E+03   -0.12098E+01   -0.12080E+01  7488   0.407E+02 0.179E+00
CGA:   3    -0.341368807019E+03   -0.29225E+01   -0.29731E+01  7488   0.225E+02-0.305E+01
CGA:   4    -0.342023009194E+03   -0.65420E+00   -0.63972E+00  7488   0.119E+02 0.190E+00
CGA:   5    -0.342444079866E+03   -0.42107E+00   -0.42279E+00  7488   0.746E+01 0.156E-01
CGA:   6    -0.342916477535E+03   -0.47240E+00   -0.47536E+00  7488   0.548E+01-0.180E+00
CGA:   7    -0.343086552295E+03   -0.17007E+00   -0.17133E+00  7488   0.253E+01-0.286E-02
CGA:   8    -0.343169554532E+03   -0.83002E-01   -0.80319E-01  7488   0.636E+00 0.193E-01
CGA:   9    -0.343214234360E+03   -0.44680E-01   -0.43917E-01  7488   0.975E+00 0.323E-01
CGA:  10    -0.343245218668E+03   -0.30984E-01   -0.31137E-01  7488   0.411E+00-0.122E-02
CGA:  11    -0.343261499057E+03   -0.16280E-01   -0.16434E-01  7488   0.316E+00 0.368E-02
CGA:  12    -0.343272286011E+03   -0.10787E-01   -0.10789E-01  7488   0.135E+00 0.769E-04
CGA:  13    -0.343277249158E+03   -0.49631E-02   -0.49708E-02  7488   0.785E-01 0.107E-03
CGA:  14    -0.343283125795E+03   -0.58766E-02   -0.58219E-02  7488   0.102E+00 0.175E-02
CGA:  15    -0.343287124152E+03   -0.39984E-02   -0.40106E-02  7488   0.336E-01 0.245E-03
CGA:  16    -0.343288121324E+03   -0.99717E-03   -0.10025E-02  7488   0.127E-01-0.328E-04
CGA:  17    -0.343289054662E+03   -0.93334E-03   -0.92437E-03  7488   0.265E-01 0.301E-03
CGA:  18    -0.343290334526E+03   -0.12799E-02   -0.12788E-02  7488   0.136E-01-0.222E-03
CGA:  19    -0.343290812501E+03   -0.47798E-03   -0.48239E-03  7488   0.391E-02 0.466E-04
CGA:  20    -0.343291013071E+03   -0.20057E-03   -0.20058E-03  7488   0.471E-02-0.232E-05
CGA:  21    -0.343291364330E+03   -0.35126E-03   -0.34797E-03  7488   0.686E-02 0.107E-03
CGA:  22    -0.343291650352E+03   -0.28602E-03   -0.28600E-03  7488   0.291E-02 0.506E-05
CGA:  23    -0.343291741110E+03   -0.90758E-04   -0.90878E-04  7488   0.123E-02 0.196E-05
CGA:  24    -0.343291847682E+03   -0.10657E-03   -0.10620E-03  7488   0.216E-02 0.904E-05
CGA:  25    -0.343291961780E+03   -0.11410E-03   -0.11409E-03  7488   0.154E-02 0.396E-05
CGA:  26    -0.343292012966E+03   -0.51186E-04   -0.51209E-04  7488   0.629E-03 0.748E-06
CGA:  27    -0.343292045381E+03   -0.32415E-04   -0.32409E-04  7488   0.565E-03 0.223E-05
CGA:  28    -0.343292070288E+03   -0.24907E-04   -0.24921E-04  7488   0.365E-03 0.210E-05
CGA:  29    -0.343292096209E+03   -0.25921E-04   -0.25846E-04  7488   0.438E-03 0.299E-05
CGA:  30    -0.343292114773E+03   -0.18564E-04   -0.18584E-04  7488   0.252E-03 0.201E-05
CGA:  31    -0.343292123479E+03   -0.87064E-05   -0.87225E-05  7488   0.106E-03 0.622E-06
  14 F= -.34329212E+03 E0= -.34327069E+03  d E =0.276556E-01  mag=    20.0000
       N       E                     dE             d eps       ncg     rms          ort
SDA:   1    -0.342417475213E+03    0.87464E+00    0.00000E+00  7488   0.327E+01 0.000E+00
CGA:   2    -0.342610302445E+03   -0.19283E+00   -0.19271E+00  7488   0.651E+01 0.990E-02
CGA:   3    -0.342912808663E+03   -0.30251E+00   -0.30226E+00  7488   0.422E+01-0.208E-01
CGA:   4    -0.343102179275E+03   -0.18937E+00   -0.19029E+00  7488   0.121E+01 0.661E-01
CGA:   5    -0.343188662049E+03   -0.86483E-01   -0.86332E-01  7488   0.151E+01 0.591E-02
CGA:   6    -0.343246741029E+03   -0.58079E-01   -0.58042E-01  7488   0.104E+01-0.523E-03
CGA:   7    -0.343279994501E+03   -0.33253E-01   -0.33201E-01  7488   0.252E+00 0.193E-03
CGA:   8    -0.343289785524E+03   -0.97910E-02   -0.97914E-02  7488   0.124E+00 0.198E-04
CGA:   9    -0.343297467001E+03   -0.76815E-02   -0.76783E-02  7488   0.144E+00 0.206E-03
CGA:  10    -0.343302894766E+03   -0.54278E-02   -0.54276E-02  7488   0.434E-01 0.190E-04
CGA:  11    -0.343304746228E+03   -0.18515E-02   -0.18522E-02  7488   0.350E-01 0.374E-04
CGA:  12    -0.343305921180E+03   -0.11750E-02   -0.11754E-02  7488   0.178E-01 0.463E-05
CGA:  13    -0.343306888431E+03   -0.96725E-03   -0.96722E-03  7488   0.935E-02 0.790E-05
CGA:  14    -0.343307917081E+03   -0.10286E-02   -0.10293E-02  7488   0.793E-02-0.118E-04
CGA:  15    -0.343308106350E+03   -0.18927E-03   -0.18944E-03  7488   0.234E-02-0.192E-05
CGA:  16    -0.343308202727E+03   -0.96377E-04   -0.96406E-04  7488   0.208E-02 0.188E-05
CGA:  17    -0.343308420434E+03   -0.21771E-03   -0.21752E-03  7488   0.270E-02 0.312E-05
CGA:  18    -0.343308500788E+03   -0.80354E-04   -0.80395E-04  7488   0.584E-03-0.623E-06
CGA:  19    -0.343308527789E+03   -0.27000E-04   -0.27000E-04  7488   0.456E-03-0.168E-06
CGA:  20    -0.343308574581E+03   -0.46792E-04   -0.46759E-04  7488   0.662E-03 0.562E-06
CGA:  21    -0.343308597952E+03   -0.23372E-04   -0.23369E-04  7488   0.509E-03-0.405E-06
CGA:  22    -0.343308620631E+03   -0.22679E-04   -0.22678E-04  7488   0.219E-03-0.440E-06
CGA:  23    -0.343308632697E+03   -0.12065E-04   -0.12064E-04  7488   0.132E-03 0.451E-06
CGA:  24    -0.343308641315E+03   -0.86176E-05   -0.86120E-05  7488   0.150E-03 0.378E-06
  15 F= -.34330864E+03 E0= -.34328719E+03  d E =-.165178E-01  mag=    20.0000
       N       E                     dE             d eps       ncg     rms          ort
SDA:   1    -0.343221575617E+03    0.87057E-01    0.00000E+00  7488   0.846E+00 0.000E+00
CGA:   2    -0.343239093308E+03   -0.17518E-01   -0.17451E-01  7488   0.260E+00 0.228E-02
CGA:   3    -0.343263583979E+03   -0.24491E-01   -0.24496E-01  7488   0.612E+00-0.100E-03
CGA:   4    -0.343289160355E+03   -0.25576E-01   -0.25590E-01  7488   0.258E+00 0.272E-03
CGA:   5    -0.343297947309E+03   -0.87870E-02   -0.87434E-02  7488   0.940E-01 0.203E-03
CGA:   6    -0.343303344550E+03   -0.53972E-02   -0.53994E-02  7488   0.694E-01-0.236E-03
CGA:   7    -0.343308492960E+03   -0.51484E-02   -0.51387E-02  7488   0.240E-01 0.351E-03
CGA:   8    -0.343309361635E+03   -0.86867E-03   -0.86843E-03  7488   0.984E-02 0.617E-05
CGA:   9    -0.343309733706E+03   -0.37207E-03   -0.37200E-03  7488   0.101E-01 0.194E-05
CGA:  10    -0.343310393194E+03   -0.65949E-03   -0.65943E-03  7488   0.411E-02 0.355E-05
CGA:  11    -0.343310548705E+03   -0.15551E-03   -0.15552E-03  7488   0.155E-02 0.963E-06
CGA:  12    -0.343310633545E+03   -0.84840E-04   -0.84833E-04  7488   0.174E-02 0.219E-05
CGA:  13    -0.343310717350E+03   -0.83805E-04   -0.83810E-04  7488   0.749E-03 0.164E-05
CGA:  14    -0.343310775143E+03   -0.57793E-04   -0.57786E-04  7488   0.878E-03 0.221E-06
CGA:  15    -0.343310796500E+03   -0.21357E-04   -0.21366E-04  7488   0.211E-03 0.906E-07
CGA:  16    -0.343310807155E+03   -0.10655E-04   -0.10655E-04  7488   0.127E-03 0.323E-08
CGA:  17    -0.343310819400E+03   -0.12245E-04   -0.12253E-04  7488   0.176E-03-0.225E-06
CGA:  18    -0.343310829033E+03   -0.96332E-05   -0.96337E-05  7488   0.111E-03-0.541E-06
  16 F= -.34331083E+03 E0= -.34328938E+03  d E =-.218772E-02  mag=    20.0000
       N       E                     dE             d eps       ncg     rms          ort
SDA:   1    -0.343202260661E+03    0.10856E+00    0.00000E+00  7488   0.318E+00 0.000E+00
CGA:   2    -0.343228647431E+03   -0.26387E-01   -0.26362E-01  7488   0.106E+01 0.761E-03
CGA:   3    -0.343278346574E+03   -0.49699E-01   -0.49722E-01  7488   0.333E+00 0.123E-02
CGA:   4    -0.343293627622E+03   -0.15281E-01   -0.15291E-01  7488   0.134E+00 0.431E-03
CGA:   5    -0.343302427372E+03   -0.87997E-02   -0.87972E-02  7488   0.119E+00 0.147E-03
CGA:   6    -0.343306575956E+03   -0.41486E-02   -0.41523E-02  7488   0.496E-01 0.138E-05
CGA:   7    -0.343309496776E+03   -0.29208E-02   -0.29213E-02  7488   0.244E-01-0.529E-04
CGA:   8    -0.343310661123E+03   -0.11643E-02   -0.11640E-02  7488   0.786E-02-0.278E-04
CGA:   9    -0.343311096771E+03   -0.43565E-03   -0.43560E-03  7488   0.755E-02 0.124E-04
CGA:  10    -0.343311415258E+03   -0.31849E-03   -0.31855E-03  7488   0.682E-02 0.266E-05
CGA:  11    -0.343311695544E+03   -0.28029E-03   -0.28020E-03  7488   0.194E-02-0.247E-05
CGA:  12    -0.343311767315E+03   -0.71771E-04   -0.71778E-04  7488   0.928E-03-0.572E-07
CGA:  13    -0.343311834081E+03   -0.66766E-04   -0.66776E-04  7488   0.152E-02-0.433E-06
CGA:  14    -0.343311906555E+03   -0.72474E-04   -0.72472E-04  7488   0.257E-03-0.624E-06
CGA:  15    -0.343311918472E+03   -0.11917E-04   -0.11916E-04  7488   0.203E-03-0.956E-07
CGA:  16    -0.343311930418E+03   -0.11946E-04   -0.11946E-04  7488   0.299E-03-0.379E-07
CGA:  17    -0.343311941761E+03   -0.11343E-04   -0.11339E-04  7488   0.108E-03-0.355E-06
CGA:  18    -0.343311949064E+03   -0.73034E-05   -0.73092E-05  7488   0.852E-04-0.359E-06
  17 F= -.34331195E+03 E0= -.34329050E+03  d E =-.112003E-02  mag=    20.0000
       N       E                     dE             d eps       ncg     rms          ort
SDA:   1    -0.342745669002E+03    0.56627E+00    0.00000E+00  7488   0.159E+01 0.000E+00
CGA:   2    -0.342905126955E+03   -0.15946E+00   -0.15933E+00  7488   0.594E+01 0.364E-02
CGA:   3    -0.343149232910E+03   -0.24411E+00   -0.24375E+00  7488   0.170E+01-0.407E-02
CGA:   4    -0.343207131934E+03   -0.57899E-01   -0.58544E-01  7488   0.707E+00-0.192E-02
CGA:   5    -0.343257155321E+03   -0.50023E-01   -0.50018E-01  7488   0.791E+00 0.212E-03
CGA:   6    -0.343282803854E+03   -0.25649E-01   -0.25571E-01  7488   0.197E+00 0.772E-03
CGA:   7    -0.343298631376E+03   -0.15828E-01   -0.15842E-01  7488   0.101E+00-0.459E-03
CGA:   8    -0.343302889892E+03   -0.42585E-02   -0.42530E-02  7488   0.415E-01-0.108E-03
CGA:   9    -0.343304708981E+03   -0.18191E-02   -0.18195E-02  7488   0.487E-01 0.151E-04
CGA:  10    -0.343307249707E+03   -0.25407E-02   -0.25408E-02  7488   0.242E-01 0.890E-04
CGA:  11    -0.343307979850E+03   -0.73014E-03   -0.73139E-03  7488   0.798E-02-0.718E-05
CGA:  12    -0.343308349064E+03   -0.36921E-03   -0.36923E-03  7488   0.676E-02 0.138E-05
CGA:  13    -0.343308901599E+03   -0.55254E-03   -0.55268E-03  7488   0.422E-02-0.525E-05
CGA:  14    -0.343309100567E+03   -0.19897E-03   -0.19891E-03  7488   0.156E-02-0.611E-05
CGA:  15    -0.343309156712E+03   -0.56145E-04   -0.56157E-04  7488   0.127E-02 0.298E-06
CGA:  16    -0.343309234883E+03   -0.78170E-04   -0.78153E-04  7488   0.144E-02 0.165E-05
CGA:  17    -0.343309295176E+03   -0.60293E-04   -0.60313E-04  7488   0.664E-03 0.113E-05
CGA:  18    -0.343309324997E+03   -0.29821E-04   -0.29823E-04  7488   0.526E-03 0.280E-07
CGA:  19    -0.343309354311E+03   -0.29314E-04   -0.29311E-04  7488   0.204E-03 0.549E-06
CGA:  20    -0.343309366312E+03   -0.12001E-04   -0.11995E-04  7488   0.257E-03 0.664E-06
CGA:  21    -0.343309385626E+03   -0.19314E-04   -0.19295E-04  7488   0.465E-03 0.756E-06
CGA:  22    -0.343309400095E+03   -0.14469E-04   -0.14480E-04  7488   0.707E-04 0.199E-06
CGA:  23    -0.343309403984E+03   -0.38883E-05   -0.38865E-05  7488   0.876E-04 0.501E-06
  18 F= -.34330940E+03 E0= -.34328793E+03  d E =0.254508E-02  mag=    20.0000
       N       E                     dE             d eps       ncg     rms          ort
SDA:   1    -0.341359206283E+03    0.19502E+01    0.00000E+00  7488   0.578E+01 0.000E+00
CGA:   2    -0.341892479845E+03   -0.53327E+00   -0.52809E+00  7488   0.181E+02 0.128E+00
CGA:   3    -0.342648723055E+03   -0.75624E+00   -0.75681E+00  7488   0.683E+01 0.226E-01
CGA:   4    -0.342908756546E+03   -0.26003E+00   -0.25569E+00  7488   0.250E+01-0.124E-01
CGA:   5    -0.343100764520E+03   -0.19201E+00   -0.19090E+00  7488   0.245E+01 0.380E-01
CGA:   6    -0.343200686760E+03   -0.99922E-01   -0.99876E-01  7488   0.145E+01 0.375E-03
CGA:   7    -0.343249308846E+03   -0.48622E-01   -0.48024E-01  7488   0.360E+00 0.395E-02
CGA:   8    -0.343263131136E+03   -0.13822E-01   -0.13827E-01  7488   0.305E+00 0.904E-04
CGA:   9    -0.343277772756E+03   -0.14642E-01   -0.14641E-01  7488   0.214E+00-0.701E-04
CGA:  10    -0.343287284718E+03   -0.95120E-02   -0.95090E-02  7488   0.647E-01-0.121E-03
CGA:  11    -0.343291539090E+03   -0.42544E-02   -0.42565E-02  7488   0.539E-01-0.108E-03
CGA:  12    -0.343293442483E+03   -0.19034E-02   -0.19047E-02  7488   0.319E-01 0.931E-05
CGA:  13    -0.343294643633E+03   -0.12012E-02   -0.12013E-02  7488   0.227E-01 0.874E-05
CGA:  14    -0.343296475645E+03   -0.18320E-02   -0.18286E-02  7488   0.879E-02 0.100E-03
CGA:  15    -0.343296789708E+03   -0.31406E-03   -0.31444E-03  7488   0.433E-02 0.220E-05
CGA:  16    -0.343297026205E+03   -0.23650E-03   -0.23647E-03  7488   0.614E-02 0.518E-05
CGA:  17    -0.343297373120E+03   -0.34691E-03   -0.34687E-03  7488   0.422E-02 0.666E-05
CGA:  18    -0.343297529313E+03   -0.15619E-03   -0.15636E-03  7488   0.223E-02 0.344E-05
CGA:  19    -0.343297608450E+03   -0.79137E-04   -0.79231E-04  7488   0.790E-03 0.258E-05
CGA:  20    -0.343297708754E+03   -0.10030E-03   -0.99988E-04  7488   0.173E-02 0.407E-05
CGA:  21    -0.343297778514E+03   -0.69760E-04   -0.69803E-04  7488   0.110E-02 0.164E-05
CGA:  22    -0.343297816504E+03   -0.37990E-04   -0.38033E-04  7488   0.601E-03 0.455E-06
CGA:  23    -0.343297857948E+03   -0.41444E-04   -0.41432E-04  7488   0.282E-03 0.652E-06
CGA:  24    -0.343297874826E+03   -0.16878E-04   -0.16880E-04  7488   0.445E-03-0.500E-06
CGA:  25    -0.343297900184E+03   -0.25357E-04   -0.25360E-04  7488   0.369E-03-0.768E-06
CGA:  26    -0.343297914118E+03   -0.13934E-04   -0.13937E-04  7488   0.151E-03-0.936E-07
CGA:  27    -0.343297919191E+03   -0.50730E-05   -0.50834E-05  7488   0.790E-04 0.417E-06
  19 F= -.34329792E+03 E0= -.34327649E+03  d E =0.114848E-01  mag=    20.0000
       N       E                     dE             d eps       ncg     rms          ort
SDA:   1    -0.342929871133E+03    0.36804E+00    0.00000E+00  7488   0.140E+01 0.000E+00
CGA:   2    -0.343009890849E+03   -0.80020E-01   -0.80093E-01  7488   0.257E+01-0.880E-02
CGA:   3    -0.343142021473E+03   -0.13213E+00   -0.13214E+00  7488   0.178E+01 0.295E-02
CGA:   4    -0.343201088914E+03   -0.59067E-01   -0.59160E-01  7488   0.606E+00-0.578E-03
CGA:   5    -0.343242157115E+03   -0.41068E-01   -0.40905E-01  7488   0.665E+00 0.751E-02
CGA:   6    -0.343269934015E+03   -0.27777E-01   -0.27775E-01  7488   0.355E+00 0.374E-04
CGA:   7    -0.343286539025E+03   -0.16605E-01   -0.16560E-01  7488   0.840E-01-0.321E-02
CGA:   8    -0.343291473468E+03   -0.49344E-02   -0.49311E-02  7488   0.561E-01 0.278E-03
CGA:   9    -0.343294706980E+03   -0.32335E-02   -0.32329E-02  7488   0.413E-01 0.776E-04
CGA:  10    -0.343295892326E+03   -0.11853E-02   -0.11857E-02  7488   0.212E-01 0.248E-05
CGA:  11    -0.343297098850E+03   -0.12065E-02   -0.12069E-02  7488   0.107E-01-0.365E-04
CGA:  12    -0.343297466606E+03   -0.36776E-03   -0.36792E-03  7488   0.461E-02-0.105E-05
CGA:  13    -0.343297766701E+03   -0.30010E-03   -0.30003E-03  7488   0.680E-02 0.389E-05
CGA:  14    -0.343298184281E+03   -0.41758E-03   -0.41754E-03  7488   0.157E-02 0.347E-05
CGA:  15    -0.343298248732E+03   -0.64451E-04   -0.64452E-04  7488   0.102E-02-0.525E-06
CGA:  16    -0.343298297427E+03   -0.48695E-04   -0.48696E-04  7488   0.134E-02 0.271E-06
CGA:  17    -0.343298367905E+03   -0.70478E-04   -0.70474E-04  7488   0.613E-03 0.261E-05
CGA:  18    -0.343298399881E+03   -0.31976E-04   -0.31975E-04  7488   0.301E-03 0.157E-05
CGA:  19    -0.343298412686E+03   -0.12805E-04   -0.12810E-04  7488   0.224E-03 0.283E-06
CGA:  20    -0.343298427044E+03   -0.14358E-04   -0.14355E-04  7488   0.217E-03 0.172E-06
CGA:  21    -0.343298437417E+03   -0.10373E-04   -0.10375E-04  7488   0.158E-03 0.398E-06
CGA:  22    -0.343298444955E+03   -0.75379E-05   -0.75385E-05  7488   0.177E-03 0.684E-07
  20 F= -.34329844E+03 E0= -.34327699E+03  d E =-.525765E-03  mag=    20.0000
       N       E                     dE             d eps       ncg     rms          ort
SDA:   1    -0.343199465013E+03    0.98972E-01    0.00000E+00  7488   0.362E+00 0.000E+00
CGA:   2    -0.343219909886E+03   -0.20445E-01   -0.20459E-01  7488   0.703E+00-0.133E-02
CGA:   3    -0.343257261333E+03   -0.37351E-01   -0.37356E-01  7488   0.525E+00-0.951E-03
CGA:   4    -0.343277138732E+03   -0.19877E-01   -0.19938E-01  7488   0.179E+00 0.769E-03
CGA:   5    -0.343287717830E+03   -0.10579E-01   -0.10586E-01  7488   0.146E+00-0.493E-03
CGA:   6    -0.343293578581E+03   -0.58608E-02   -0.58624E-02  7488   0.795E-01 0.311E-04
CGA:   7    -0.343297513792E+03   -0.39352E-02   -0.39356E-02  7488   0.307E-01 0.269E-03
CGA:   8    -0.343299256618E+03   -0.17428E-02   -0.17435E-02  7488   0.162E-01-0.673E-04
CGA:   9    -0.343299844294E+03   -0.58768E-03   -0.58762E-03  7488   0.949E-02-0.318E-05
CGA:  10    -0.343300169422E+03   -0.32513E-03   -0.32496E-03  7488   0.585E-02 0.228E-06
CGA:  11    -0.343300582131E+03   -0.41271E-03   -0.41246E-03  7488   0.379E-02 0.967E-05
CGA:  12    -0.343300722074E+03   -0.13994E-03   -0.13990E-03  7488   0.109E-02-0.231E-06
CGA:  13    -0.343300774860E+03   -0.52787E-04   -0.52786E-04  7488   0.128E-02-0.137E-05
CGA:  14    -0.343300882121E+03   -0.10726E-03   -0.10742E-03  7488   0.496E-03-0.461E-05
CGA:  15    -0.343300901516E+03   -0.19395E-04   -0.19394E-04  7488   0.220E-03-0.156E-06
CGA:  16    -0.343300911863E+03   -0.10348E-04   -0.10348E-04  7488   0.291E-03-0.694E-07
CGA:  17    -0.343300925448E+03   -0.13585E-04   -0.13585E-04  7488   0.122E-03-0.527E-07
CGA:  18    -0.343300933909E+03   -0.84609E-05   -0.84679E-05  7488   0.136E-03-0.377E-06
  21 F= -.34330093E+03 E0= -.34327947E+03  d E =-.248895E-02  mag=    20.0000
       N       E                     dE             d eps       ncg     rms          ort
SDA:   1    -0.343268537315E+03    0.32388E-01    0.00000E+00  7488   0.219E+00 0.000E+00
CGA:   2    -0.343274185488E+03   -0.56482E-02   -0.56527E-02  7488   0.110E+00-0.676E-04
CGA:   3    -0.343283337515E+03   -0.91520E-02   -0.91862E-02  7488   0.210E+00-0.895E-03
CGA:   4    -0.343292655305E+03   -0.93178E-02   -0.93214E-02  7488   0.123E+00 0.222E-03
CGA:   5    -0.343296131634E+03   -0.34763E-02   -0.34862E-02  7488   0.272E-01-0.118E-03
CGA:   6    -0.343297733675E+03   -0.16020E-02   -0.16013E-02  7488   0.203E-01 0.512E-04
CGA:   7    -0.343299322300E+03   -0.15886E-02   -0.15891E-02  7488   0.116E-01-0.168E-04
CGA:   8    -0.343299773633E+03   -0.45133E-03   -0.45119E-03  7488   0.291E-02-0.627E-05
CGA:   9    -0.343299902971E+03   -0.12934E-03   -0.12933E-03  7488   0.311E-02-0.425E-06
CGA:  10    -0.343300040579E+03   -0.13761E-03   -0.13761E-03  7488   0.165E-02-0.669E-07
CGA:  11    -0.343300105816E+03   -0.65237E-04   -0.65237E-04  7488   0.105E-02 0.180E-06
CGA:  12    -0.343300156476E+03   -0.50659E-04   -0.50659E-04  7488   0.678E-03-0.177E-06
CGA:  13    -0.343300182234E+03   -0.25759E-04   -0.25759E-04  7488   0.161E-03-0.106E-07
CGA:  14    -0.343300201194E+03   -0.18960E-04   -0.18988E-04  7488   0.273E-03-0.386E-06
CGA:  15    -0.343300212966E+03   -0.11772E-04   -0.11765E-04  7488   0.724E-04-0.728E-06
CGA:  16    -0.343300214924E+03   -0.19583E-05   -0.19541E-05  7488   0.412E-04-0.174E-06
  22 F= -.34330021E+03 E0= -.34327875E+03  d E =0.718985E-03  mag=    20.0000
       N       E                     dE             d eps       ncg     rms          ort
SDA:   1    -0.340637397792E+03    0.26628E+01    0.00000E+00  7488   0.754E+01 0.000E+00
CGA:   2    -0.341333579676E+03   -0.69618E+00   -0.68870E+00  7488   0.266E+02 0.185E+00
CGA:   3    -0.342542083173E+03   -0.12085E+01   -0.12056E+01  7488   0.845E+01-0.534E-01
CGA:   4    -0.342842409825E+03   -0.30033E+00   -0.30862E+00  7488   0.270E+01 0.216E-01
CGA:   5    -0.343035502223E+03   -0.19309E+00   -0.19264E+00  7488   0.333E+01 0.193E-01
CGA:   6    -0.343173289616E+03   -0.13779E+00   -0.13785E+00  7488   0.163E+01 0.228E-02
CGA:   7    -0.343229571448E+03   -0.56282E-01   -0.55621E-01  7488   0.461E+00 0.321E-02
CGA:   8    -0.343245888764E+03   -0.16317E-01   -0.16385E-01  7488   0.327E+00 0.108E-03
CGA:   9    -0.343261229331E+03   -0.15341E-01   -0.15341E-01  7488   0.260E+00 0.622E-04
CGA:  10    -0.343272955865E+03   -0.11727E-01   -0.11739E-01  7488   0.838E-01 0.798E-03
CGA:  11    -0.343280040052E+03   -0.70842E-02   -0.70433E-02  7488   0.459E-01 0.111E-02
CGA:  12    -0.343281735362E+03   -0.16953E-02   -0.16955E-02  7488   0.290E-01 0.436E-05
CGA:  13    -0.343282917791E+03   -0.11824E-02   -0.11821E-02  7488   0.287E-01-0.876E-05
CGA:  14    -0.343284886622E+03   -0.19688E-02   -0.19674E-02  7488   0.120E-01 0.557E-04
CGA:  15    -0.343285258765E+03   -0.37214E-03   -0.37173E-03  7488   0.419E-02-0.457E-06
CGA:  16    -0.343285522171E+03   -0.26341E-03   -0.26337E-03  7488   0.666E-02 0.376E-05
CGA:  17    -0.343286056440E+03   -0.53427E-03   -0.53341E-03  7488   0.358E-02 0.274E-04
CGA:  18    -0.343286162954E+03   -0.10651E-03   -0.10667E-03  7488   0.177E-02 0.955E-08
CGA:  19    -0.343286240732E+03   -0.77778E-04   -0.77785E-04  7488   0.178E-02 0.207E-06
CGA:  20    -0.343286414250E+03   -0.17352E-03   -0.17328E-03  7488   0.144E-02 0.481E-05
CGA:  21    -0.343286500675E+03   -0.86425E-04   -0.86415E-04  7488   0.122E-02 0.113E-05
CGA:  22    -0.343286554186E+03   -0.53511E-04   -0.53542E-04  7488   0.843E-03 0.172E-05
CGA:  23    -0.343286585803E+03   -0.31618E-04   -0.31647E-04  7488   0.506E-03 0.144E-05
CGA:  24    -0.343286615844E+03   -0.30041E-04   -0.30019E-04  7488   0.622E-03 0.305E-05
CGA:  25    -0.343286647670E+03   -0.31826E-04   -0.31833E-04  7488   0.514E-03 0.298E-05
CGA:  26    -0.343286670386E+03   -0.22716E-04   -0.22736E-04  7488   0.116E-03 0.197E-05
CGA:  27    -0.343286677956E+03   -0.75693E-05   -0.75606E-05  7488   0.144E-03 0.489E-06
  23 F= -.34328668E+03 E0= -.34326519E+03  d E =0.135370E-01  mag=    20.0000
       N       E                     dE             d eps       ncg     rms          ort
SDA:   1    -0.341656283029E+03    0.16304E+01    0.00000E+00  7488   0.517E+01 0.000E+00
CGA:   2    -0.341921402188E+03   -0.26512E+00   -0.26488E+00  7488   0.116E+02-0.418E-01
CGA:   3    -0.342875586028E+03   -0.95418E+00   -0.95619E+00  7488   0.562E+01-0.683E-01
CGA:   4    -0.343031502287E+03   -0.15592E+00   -0.15587E+00  7488   0.155E+01 0.380E-04
CGA:   5    -0.343128295960E+03   -0.96794E-01   -0.96739E-01  7488   0.221E+01 0.453E-02
CGA:   6    -0.343232373125E+03   -0.10408E+00   -0.10409E+00  7488   0.580E+00 0.969E-03
CGA:   7    -0.343252744062E+03   -0.20371E-01   -0.20390E-01  7488   0.300E+00-0.489E-04
CGA:   8    -0.343264290316E+03   -0.11546E-01   -0.11565E-01  7488   0.254E+00 0.184E-03
CGA:   9    -0.343275364607E+03   -0.11074E-01   -0.11086E-01  7488   0.793E-01 0.411E-03
CGA:  10    -0.343282290881E+03   -0.69263E-02   -0.69148E-02  7488   0.664E-01 0.288E-03
CGA:  11    -0.343285244946E+03   -0.29541E-02   -0.29536E-02  7488   0.171E-01-0.120E-04
CGA:  12    -0.343286036021E+03   -0.79108E-03   -0.79121E-03  7488   0.259E-01 0.310E-05
CGA:  13    -0.343287601037E+03   -0.15650E-02   -0.15642E-02  7488   0.154E-01 0.621E-04
CGA:  14    -0.343288101229E+03   -0.50019E-03   -0.50089E-03  7488   0.357E-02-0.106E-04
CGA:  15    -0.343288243181E+03   -0.14195E-03   -0.14200E-03  7488   0.319E-02-0.119E-05
CGA:  16    -0.343288548616E+03   -0.30543E-03   -0.30555E-03  7488   0.333E-02-0.421E-05
CGA:  17    -0.343288693147E+03   -0.14453E-03   -0.14471E-03  7488   0.164E-02 0.329E-05
CGA:  18    -0.343288741184E+03   -0.48038E-04   -0.48085E-04  7488   0.810E-03-0.285E-06
CGA:  19    -0.343288788364E+03   -0.47179E-04   -0.47156E-04  7488   0.701E-03 0.257E-05
CGA:  20    -0.343288837239E+03   -0.48876E-04   -0.48825E-04  7488   0.582E-03 0.200E-05
CGA:  21    -0.343288877040E+03   -0.39801E-04   -0.39762E-04  7488   0.774E-03 0.184E-05
CGA:  22    -0.343288902778E+03   -0.25737E-04   -0.25776E-04  7488   0.280E-03 0.880E-06
CGA:  23    -0.343288913511E+03   -0.10734E-04   -0.10748E-04  7488   0.136E-03 0.458E-06
CGA:  24    -0.343288922171E+03   -0.86593E-05   -0.86597E-05  7488   0.258E-03-0.528E-06
CGA:  25    -0.343288939946E+03   -0.17775E-04   -0.17782E-04  7488   0.613E-04-0.969E-06
CGA:  26    -0.343288942226E+03   -0.22803E-05   -0.22835E-05  7488   0.383E-04-0.153E-06
  24 F= -.34328894E+03 E0= -.34326748E+03  d E =-.226427E-02  mag=    20.0000
       N       E                     dE             d eps       ncg     rms          ort
SDA:   1    -0.342292097940E+03    0.99684E+00    0.00000E+00  7488   0.260E+01 0.000E+00
CGA:   2    -0.342730888404E+03   -0.43879E+00   -0.43561E+00  7488   0.882E+01 0.337E-01
CGA:   3    -0.343054948344E+03   -0.32406E+00   -0.32463E+00  7488   0.217E+01-0.698E-03
CGA:   4    -0.343130264715E+03   -0.75316E-01   -0.74520E-01  7488   0.124E+01 0.637E-02
CGA:   5    -0.343203890278E+03   -0.73626E-01   -0.73611E-01  7488   0.138E+01 0.304E-02
CGA:   6    -0.343252291843E+03   -0.48402E-01   -0.48240E-01  7488   0.459E+00 0.126E-02
CGA:   7    -0.343267141663E+03   -0.14850E-01   -0.14944E-01  7488   0.127E+00-0.814E-03
CGA:   8    -0.343279122763E+03   -0.11981E-01   -0.11933E-01  7488   0.871E-01 0.112E-02
CGA:   9    -0.343282421230E+03   -0.32985E-02   -0.32969E-02  7488   0.753E-01 0.798E-05
CGA:  10    -0.343285784324E+03   -0.33631E-02   -0.33612E-02  7488   0.403E-01-0.376E-04
CGA:  11    -0.343287378984E+03   -0.15947E-02   -0.15945E-02  7488   0.134E-01-0.391E-05
CGA:  12    -0.343287973421E+03   -0.59444E-03   -0.59431E-03  7488   0.137E-01-0.275E-05
CGA:  13    -0.343288981645E+03   -0.10082E-02   -0.10083E-02  7488   0.764E-02-0.112E-05
CGA:  14    -0.343289280747E+03   -0.29910E-03   -0.29907E-03  7488   0.322E-02 0.185E-06
CGA:  15    -0.343289372993E+03   -0.92246E-04   -0.92195E-04  7488   0.173E-02-0.457E-06
CGA:  16    -0.343289530008E+03   -0.15701E-03   -0.15717E-03  7488   0.243E-02-0.404E-05
CGA:  17    -0.343289655458E+03   -0.12545E-03   -0.12546E-03  7488   0.910E-03 0.285E-05
CGA:  18    -0.343289684778E+03   -0.29320E-04   -0.29349E-04  7488   0.479E-03 0.136E-05
CGA:  19    -0.343289712860E+03   -0.28083E-04   -0.28075E-04  7488   0.508E-03 0.121E-05
CGA:  20    -0.343289739623E+03   -0.26762E-04   -0.26764E-04  7488   0.538E-03 0.133E-05
CGA:  21    -0.343289762063E+03   -0.22441E-04   -0.22456E-04  7488   0.293E-03 0.131E-05
CGA:  22    -0.343289785113E+03   -0.23050E-04   -0.22994E-04  7488   0.128E-03 0.218E-05
CGA:  23    -0.343289789402E+03   -0.42883E-05   -0.42893E-05  7488   0.971E-04-0.296E-07
  25 F= -.34328979E+03 E0= -.34326834E+03  d E =-.847176E-03  mag=    20.0000
       N       E                     dE             d eps       ncg     rms          ort
SDA:   1    -0.342982688578E+03    0.30710E+00    0.00000E+00  7488   0.136E+01 0.000E+00
CGA:   2    -0.343027946334E+03   -0.45258E-01   -0.45472E-01  7488   0.147E+01-0.121E-02
CGA:   3    -0.343153709928E+03   -0.12576E+00   -0.12543E+00  7488   0.196E+01 0.914E-02
CGA:   4    -0.343228203266E+03   -0.74493E-01   -0.74003E-01  7488   0.368E+00-0.115E-02
CGA:   5    -0.343247007264E+03   -0.18804E-01   -0.18809E-01  7488   0.460E+00 0.878E-03
CGA:   6    -0.343273546513E+03   -0.26539E-01   -0.26531E-01  7488   0.169E+00 0.116E-02
CGA:   7    -0.343280316880E+03   -0.67704E-02   -0.67417E-02  7488   0.541E-01-0.303E-03
CGA:   8    -0.343283158436E+03   -0.28416E-02   -0.28415E-02  7488   0.539E-01-0.336E-04
CGA:   9    -0.343285002184E+03   -0.18437E-02   -0.18457E-02  7488   0.290E-01 0.686E-06
CGA:  10    -0.343286277740E+03   -0.12756E-02   -0.12764E-02  7488   0.134E-01 0.331E-04
CGA:  11    -0.343287072339E+03   -0.79460E-03   -0.79453E-03  7488   0.757E-02 0.515E-05
CGA:  12    -0.343287362731E+03   -0.29039E-03   -0.29038E-03  7488   0.416E-02-0.673E-06
CGA:  13    -0.343287584353E+03   -0.22162E-03   -0.22162E-03  7488   0.353E-02 0.334E-06
CGA:  14    -0.343287813898E+03   -0.22954E-03   -0.22954E-03  7488   0.303E-02 0.214E-06
CGA:  15    -0.343287895585E+03   -0.81687E-04   -0.81714E-04  7488   0.912E-03-0.227E-06
CGA:  16    -0.343287928752E+03   -0.33167E-04   -0.33185E-04  7488   0.453E-03 0.618E-06
CGA:  17    -0.343288002926E+03   -0.74174E-04   -0.73971E-04  7488   0.633E-03 0.171E-05
CGA:  18    -0.343288021715E+03   -0.18789E-04   -0.18801E-04  7488   0.206E-03 0.316E-06
CGA:  19    -0.343288031602E+03   -0.98877E-05   -0.98887E-05  7488   0.205E-03-0.178E-07
CGA:  20    -0.343288043602E+03   -0.11999E-04   -0.11999E-04  7488   0.201E-03 0.173E-06
CGA:  21    -0.343288051263E+03   -0.76614E-05   -0.76630E-05  7488   0.151E-03-0.404E-07
CGA:  22    -0.343288064261E+03   -0.12998E-04   -0.12989E-04  7488   0.883E-04 0.138E-06
CGA:  23    -0.343288068456E+03   -0.41950E-05   -0.41948E-05  7488   0.449E-04-0.140E-06
  26 F= -.34328807E+03 E0= -.34326662E+03  d E =0.172095E-02  mag=    20.0000
       N       E                     dE             d eps       ncg     rms          ort
SDA:   1    -0.343134886961E+03    0.15318E+00    0.00000E+00  7488   0.847E+00 0.000E+00
CGA:   2    -0.343155771979E+03   -0.20885E-01   -0.20754E-01  7488   0.582E+00 0.314E-02
CGA:   3    -0.343227666050E+03   -0.71894E-01   -0.72114E-01  7488   0.784E+00-0.345E-02
CGA:   4    -0.343257252722E+03   -0.29587E-01   -0.29954E-01  7488   0.144E+00 0.813E-03
CGA:   5    -0.343273176702E+03   -0.15924E-01   -0.15918E-01  7488   0.191E+00 0.123E-03
CGA:   6    -0.343281303387E+03   -0.81267E-02   -0.81184E-02  7488   0.648E-01-0.938E-04
CGA:   7    -0.343282706205E+03   -0.14028E-02   -0.14015E-02  7488   0.188E-01 0.371E-04
CGA:   8    -0.343284530061E+03   -0.18239E-02   -0.18242E-02  7488   0.213E-01-0.669E-05
CGA:   9    -0.343285424092E+03   -0.89403E-03   -0.89447E-03  7488   0.694E-02 0.124E-05
CGA:  10    -0.343285654664E+03   -0.23057E-03   -0.23042E-03  7488   0.338E-02-0.243E-05
CGA:  11    -0.343285875700E+03   -0.22104E-03   -0.22106E-03  7488   0.381E-02-0.321E-05
CGA:  12    -0.343286074224E+03   -0.19852E-03   -0.19852E-03  7488   0.314E-02-0.339E-05
CGA:  13    -0.343286157847E+03   -0.83623E-04   -0.83681E-04  7488   0.707E-03-0.365E-05
CGA:  14    -0.343286198201E+03   -0.40355E-04   -0.40355E-04  7488   0.570E-03-0.643E-06
CGA:  15    -0.343286236769E+03   -0.38568E-04   -0.38572E-04  7488   0.363E-03-0.569E-06
CGA:  16    -0.343286258982E+03   -0.22213E-04   -0.22214E-04  7488   0.504E-03-0.458E-06
CGA:  17    -0.343286276441E+03   -0.17459E-04   -0.17465E-04  7488   0.193E-03 0.258E-07
CGA:  18    -0.343286283533E+03   -0.70921E-05   -0.70969E-05  7488   0.677E-04 0.132E-06
  27 F= -.34328628E+03 E0= -.34326484E+03  d E =0.178492E-02  mag=    20.0000
       N       E                     dE             d eps       ncg     rms          ort
SDA:   1    -0.343171586149E+03    0.11469E+00    0.00000E+00  7488   0.131E+01 0.000E+00
CGA:   2    -0.343197974727E+03   -0.26389E-01   -0.26402E-01  7488   0.285E+00 0.114E-03
CGA:   3    -0.343232148494E+03   -0.34174E-01   -0.34085E-01  7488   0.752E+00 0.140E-02
CGA:   4    -0.343260751264E+03   -0.28603E-01   -0.28580E-01  7488   0.408E+00 0.110E-03
CGA:   5    -0.343272273596E+03   -0.11522E-01   -0.11457E-01  7488   0.704E-01 0.119E-02
CGA:   6    -0.343281274942E+03   -0.90013E-02   -0.89914E-02  7488   0.724E-01 0.148E-03
CGA:   7    -0.343284015688E+03   -0.27407E-02   -0.27335E-02  7488   0.141E-01 0.143E-04
CGA:   8    -0.343284874076E+03   -0.85839E-03   -0.85841E-03  7488   0.172E-01-0.576E-05
CGA:   9    -0.343285446184E+03   -0.57211E-03   -0.57245E-03  7488   0.896E-02-0.678E-05
CGA:  10    -0.343285846121E+03   -0.39994E-03   -0.39999E-03  7488   0.397E-02 0.308E-06
CGA:  11    -0.343286091734E+03   -0.24561E-03   -0.24561E-03  7488   0.177E-02-0.138E-05
CGA:  12    -0.343286193710E+03   -0.10198E-03   -0.10198E-03  7488   0.117E-02-0.334E-05
CGA:  13    -0.343286251876E+03   -0.58166E-04   -0.58142E-04  7488   0.144E-02-0.326E-05
CGA:  14    -0.343286309766E+03   -0.57890E-04   -0.57829E-04  7488   0.734E-03-0.331E-05
CGA:  15    -0.343286339277E+03   -0.29512E-04   -0.29492E-04  7488   0.119E-03-0.164E-05
CGA:  16    -0.343286350752E+03   -0.11475E-04   -0.11460E-04  7488   0.253E-03 0.345E-06
CGA:  17    -0.343286364117E+03   -0.13364E-04   -0.13364E-04  7488   0.206E-03 0.262E-07
CGA:  18    -0.343286370563E+03   -0.64462E-05   -0.64445E-05  7488   0.371E-04-0.186E-06
  28 F= -.34328637E+03 E0= -.34326492E+03  d E =-.870300E-04  mag=    20.0000
       N       E                     dE             d eps       ncg     rms          ort
SDA:   1    -0.342994083764E+03    0.29228E+00    0.00000E+00  7488   0.111E+01 0.000E+00
CGA:   2    -0.343032976622E+03   -0.38893E-01   -0.38947E-01  7488   0.152E+01-0.202E-03
CGA:   3    -0.343217050628E+03   -0.18407E+00   -0.18413E+00  7488   0.687E+00-0.118E-02
CGA:   4    -0.343236677314E+03   -0.19627E-01   -0.19569E-01  7488   0.345E+00 0.121E-02
CGA:   5    -0.343264388972E+03   -0.27712E-01   -0.27794E-01  7488   0.291E+00-0.267E-02
CGA:   6    -0.343277168481E+03   -0.12780E-01   -0.12787E-01  7488   0.587E-01 0.138E-03
CGA:   7    -0.343281106878E+03   -0.39384E-02   -0.39378E-02  7488   0.471E-01 0.368E-04
CGA:   8    -0.343282836371E+03   -0.17295E-02   -0.17289E-02  7488   0.236E-01 0.440E-05
CGA:   9    -0.343284233113E+03   -0.13967E-02   -0.13963E-02  7488   0.171E-01 0.667E-04
CGA:  10    -0.343284954460E+03   -0.72135E-03   -0.72110E-03  7488   0.996E-02-0.844E-05
CGA:  11    -0.343285279851E+03   -0.32539E-03   -0.32516E-03  7488   0.499E-02-0.224E-05
CGA:  12    -0.343285479993E+03   -0.20014E-03   -0.20010E-03  7488   0.267E-02-0.399E-05
CGA:  13    -0.343285731315E+03   -0.25132E-03   -0.25135E-03  7488   0.243E-02-0.130E-05
CGA:  14    -0.343285813379E+03   -0.82064E-04   -0.82071E-04  7488   0.656E-03-0.343E-06
CGA:  15    -0.343285839566E+03   -0.26187E-04   -0.26203E-04  7488   0.466E-03 0.150E-06
CGA:  16    -0.343285897586E+03   -0.58020E-04   -0.58007E-04  7488   0.573E-03-0.523E-07
CGA:  17    -0.343285911181E+03   -0.13596E-04   -0.13607E-04  7488   0.191E-03 0.649E-07
CGA:  18    -0.343285922167E+03   -0.10985E-04   -0.10983E-04  7488   0.169E-03 0.609E-06
CGA:  19    -0.343285930945E+03   -0.87788E-05   -0.87822E-05  7488   0.105E-03 0.525E-06
  29 F= -.34328593E+03 E0= -.34326451E+03  d E =0.439617E-03  mag=    20.0000
       N       E                     dE             d eps       ncg     rms          ort
SDA:   1    -0.341569414632E+03    0.17165E+01    0.00000E+00  7488   0.664E+01 0.000E+00
CGA:   2    -0.341820660093E+03   -0.25125E+00   -0.25082E+00  7488   0.868E+01 0.422E-02
CGA:   3    -0.342744764837E+03   -0.92410E+00   -0.92922E+00  7488   0.971E+01-0.117E+00
CGA:   4    -0.342954601866E+03   -0.20984E+00   -0.20576E+00  7488   0.212E+01 0.148E+00
CGA:   5    -0.343091267975E+03   -0.13667E+00   -0.13691E+00  7488   0.215E+01-0.193E-01
CGA:   6    -0.343201435192E+03   -0.11017E+00   -0.11016E+00  7488   0.910E+00-0.820E-03
CGA:   7    -0.343234285032E+03   -0.32850E-01   -0.32801E-01  7488   0.724E+00 0.414E-03
[...]
CGA:  13    -0.343261907631E+03   -0.17696E-02   -0.17693E-02  7488   0.393E-01 0.329E-05
CGA:  14    -0.343265305466E+03   -0.33978E-02   -0.33871E-02  7488   0.744E-01 0.261E-03
CGA:  15    -0.343267387856E+03   -0.20824E-02   -0.20883E-02  7488   0.181E-01-0.278E-04
CGA:  16    -0.343268071423E+03   -0.68357E-03   -0.68390E-03  7488   0.679E-02 0.185E-04
CGA:  17    -0.343268697851E+03   -0.62643E-03   -0.62530E-03  7488   0.112E-01 0.241E-04
CGA:  18    -0.343269045734E+03   -0.34788E-03   -0.34869E-03  7488   0.568E-02 0.126E-04
CGA:  19    -0.343269309675E+03   -0.26394E-03   -0.26397E-03  7488   0.431E-02 0.115E-04
CGA:  20    -0.343269480824E+03   -0.17115E-03   -0.17120E-03  7488   0.162E-02 0.529E-05
CGA:  21    -0.343269552055E+03   -0.71231E-04   -0.71236E-04  7488   0.127E-02 0.111E-06
CGA:  22    -0.343269666578E+03   -0.11452E-03   -0.11465E-03  7488   0.185E-02-0.357E-05
CGA:  23    -0.343269731964E+03   -0.65386E-04   -0.65399E-04  7488   0.112E-02-0.194E-05
CGA:  24    -0.343269767676E+03   -0.35712E-04   -0.35705E-04  7488   0.340E-03-0.146E-05
CGA:  25    -0.343269790994E+03   -0.23318E-04   -0.23346E-04  7488   0.482E-03-0.173E-05
CGA:  26    -0.343269824342E+03   -0.33348E-04   -0.33445E-04  7488   0.460E-03-0.476E-05
CGA:  27    -0.343269839558E+03   -0.15216E-04   -0.15178E-04  7488   0.162E-03-0.251E-05
CGA:  28    -0.343269846114E+03   -0.65568E-05   -0.65460E-05  7488   0.141E-03-0.151E-05
  48 F= -.34326985E+03 E0= -.34324851E+03  d E =-.169530E+00  mag=    20.0000
       N       E                     dE             d eps       ncg     rms          ort
SDA:   1    -0.342573893828E+03    0.69595E+00    0.00000E+00  7488   0.263E+01 0.000E+00
CGA:   2    -0.342791179657E+03   -0.21729E+00   -0.21689E+00  7488   0.541E+01 0.993E-02
CGA:   3    -0.343016161053E+03   -0.22498E+00   -0.22541E+00  7488   0.180E+01 0.153E-01
CGA:   4    -0.343118577365E+03   -0.10242E+00   -0.10248E+00  7488   0.172E+01-0.608E-02
CGA:   5    -0.343187820590E+03   -0.69243E-01   -0.69404E-01  7488   0.138E+01 0.428E-02
CGA:   6    -0.343239711184E+03   -0.51891E-01   -0.52057E-01  7488   0.566E+00 0.245E-02
CGA:   7    -0.343270752768E+03   -0.31042E-01   -0.31072E-01  7488   0.275E+00-0.330E-02
CGA:   8    -0.343283103856E+03   -0.12351E-01   -0.12347E-01  7488   0.751E-01-0.383E-03
CGA:   9    -0.343287389718E+03   -0.42859E-02   -0.42842E-02  7488   0.110E+00 0.145E-03
CGA:  10    -0.343291334900E+03   -0.39452E-02   -0.39474E-02  7488   0.459E-01 0.294E-04
CGA:  11    -0.343293422950E+03   -0.20881E-02   -0.20876E-02  7488   0.127E-01-0.590E-04
CGA:  12    -0.343294090532E+03   -0.66758E-03   -0.66760E-03  7488   0.114E-01-0.443E-05
CGA:  13    -0.343294824345E+03   -0.73381E-03   -0.73354E-03  7488   0.172E-01 0.148E-04
CGA:  14    -0.343295432240E+03   -0.60790E-03   -0.60803E-03  7488   0.372E-02 0.538E-05
CGA:  15    -0.343295566204E+03   -0.13396E-03   -0.13403E-03  7488   0.262E-02 0.266E-05
CGA:  16    -0.343295713517E+03   -0.14731E-03   -0.14726E-03  7488   0.209E-02 0.673E-05
CGA:  17    -0.343295823257E+03   -0.10974E-03   -0.10972E-03  7488   0.115E-02 0.582E-05
CGA:  18    -0.343295894355E+03   -0.71098E-04   -0.71048E-04  7488   0.130E-02 0.378E-05
CGA:  19    -0.343295929541E+03   -0.35186E-04   -0.35227E-04  7488   0.311E-03 0.124E-05
CGA:  20    -0.343295948886E+03   -0.19345E-04   -0.19342E-04  7488   0.339E-03 0.144E-06
CGA:  21    -0.343295982731E+03   -0.33845E-04   -0.33824E-04  7488   0.359E-03 0.362E-06
CGA:  22    -0.343295992417E+03   -0.96868E-05   -0.96940E-05  7488   0.146E-03 0.964E-07
  49 F= -.34329599E+03 E0= -.34327470E+03  d E =-.261463E-01  mag=    20.0000
       N       E                     dE             d eps       ncg     rms          ort
SDA:   1    -0.343091690791E+03    0.20429E+00    0.00000E+00  7488   0.889E+00 0.000E+00
CGA:   2    -0.343130838700E+03   -0.39148E-01   -0.39180E-01  7488   0.132E+01 0.194E-02
CGA:   3    -0.343211313921E+03   -0.80475E-01   -0.80498E-01  7488   0.108E+01-0.140E-02
CGA:   4    -0.343251060750E+03   -0.39747E-01   -0.39586E-01  7488   0.396E+00-0.159E-02
CGA:   5    -0.343278885628E+03   -0.27825E-01   -0.27689E-01  7488   0.316E+00 0.527E-02
CGA:   6    -0.343290544820E+03   -0.11659E-01   -0.11686E-01  7488   0.164E+00 0.246E-03
CGA:   7    -0.343300432405E+03   -0.98876E-02   -0.98827E-02  7488   0.958E-01 0.330E-03
CGA:   8    -0.343304541109E+03   -0.41087E-02   -0.41071E-02  7488   0.354E-01-0.694E-04
CGA:   9    -0.343305433513E+03   -0.89240E-03   -0.89216E-03  7488   0.161E-01-0.852E-06
CGA:  10    -0.343306743021E+03   -0.13095E-02   -0.13094E-02  7488   0.168E-01 0.388E-05
CGA:  11    -0.343307443479E+03   -0.70046E-03   -0.70031E-03  7488   0.591E-02-0.114E-04
CGA:  12    -0.343307648697E+03   -0.20522E-03   -0.20495E-03  7488   0.258E-02-0.679E-05
CGA:  13    -0.343307819736E+03   -0.17104E-03   -0.17118E-03  7488   0.316E-02-0.837E-05
CGA:  14    -0.343307990794E+03   -0.17106E-03   -0.17108E-03  7488   0.314E-02-0.619E-05
CGA:  15    -0.343308074035E+03   -0.83242E-04   -0.83205E-04  7488   0.426E-03-0.180E-05
CGA:  16    -0.343308104135E+03   -0.30100E-04   -0.30071E-04  7488   0.551E-03 0.121E-05
CGA:  17    -0.343308139150E+03   -0.35015E-04   -0.35003E-04  7488   0.455E-03 0.847E-06
CGA:  18    -0.343308155721E+03   -0.16571E-04   -0.16579E-04  7488   0.226E-03 0.327E-06
CGA:  19    -0.343308167561E+03   -0.11840E-04   -0.11838E-04  7488   0.178E-03 0.736E-06
CGA:  20    -0.343308172849E+03   -0.52882E-05   -0.52957E-05  7488   0.727E-04 0.246E-06
  50 F= -.34330817E+03 E0= -.34328687E+03  d E =-.121804E-01  mag=    20.0000
       N       E                     dE             d eps       ncg     rms          ort
SDA:   1    -0.343039599291E+03    0.26857E+00    0.00000E+00  7488   0.109E+01 0.000E+00
CGA:   2    -0.343111151950E+03   -0.71553E-01   -0.72117E-01  7488   0.166E+01-0.275E-01
CGA:   3    -0.343186405685E+03   -0.75254E-01   -0.75270E-01  7488   0.149E+01 0.127E-02
CGA:   4    -0.343240173768E+03   -0.53768E-01   -0.53844E-01  7488   0.635E+00 0.388E-03
CGA:   5    -0.343277959669E+03   -0.37786E-01   -0.37686E-01  7488   0.432E+00 0.746E-02
CGA:   6    -0.343294173881E+03   -0.16214E-01   -0.16169E-01  7488   0.204E+00-0.358E-03
CGA:   7    -0.343305173151E+03   -0.10999E-01   -0.11003E-01  7488   0.147E+00-0.668E-03
CGA:   8    -0.343312907707E+03   -0.77346E-02   -0.77354E-02  7488   0.486E-01-0.246E-03
CGA:   9    -0.343314660520E+03   -0.17528E-02   -0.17537E-02  7488   0.311E-01-0.388E-05
CGA:  10    -0.343315733061E+03   -0.10725E-02   -0.10725E-02  7488   0.174E-01-0.415E-05
CGA:  11    -0.343316984434E+03   -0.12514E-02   -0.12513E-02  7488   0.124E-01-0.121E-05
CGA:  12    -0.343317476064E+03   -0.49163E-03   -0.49149E-03  7488   0.315E-02-0.132E-04
CGA:  13    -0.343317609192E+03   -0.13313E-03   -0.13311E-03  7488   0.363E-02-0.455E-05
CGA:  14    -0.343317925273E+03   -0.31608E-03   -0.31674E-03  7488   0.368E-02-0.172E-04
CGA:  15    -0.343318015948E+03   -0.90675E-04   -0.90524E-04  7488   0.847E-03-0.669E-05
CGA:  16    -0.343318051269E+03   -0.35321E-04   -0.35300E-04  7488   0.535E-03-0.230E-05
CGA:  17    -0.343318099028E+03   -0.47759E-04   -0.47704E-04  7488   0.433E-03 0.136E-05
CGA:  18    -0.343318123591E+03   -0.24563E-04   -0.24553E-04  7488   0.481E-03 0.208E-05
CGA:  19    -0.343318139353E+03   -0.15762E-04   -0.15779E-04  7488   0.191E-03 0.909E-06
CGA:  20    -0.343318147699E+03   -0.83458E-05   -0.83468E-05  7488   0.950E-04 0.108E-06
  51 F= -.34331815E+03 E0= -.34329680E+03  d E =-.997485E-02  mag=    20.0000
       N       E                     dE             d eps       ncg     rms          ort
SDA:   1    -0.343257914582E+03    0.60225E-01    0.00000E+00  7488   0.577E+00 0.000E+00
CGA:   2    -0.343270584492E+03   -0.12670E-01   -0.12758E-01  7488   0.210E+00-0.235E-02
CGA:   3    -0.343288855379E+03   -0.18271E-01   -0.18335E-01  7488   0.334E+00-0.157E-02
CGA:   4    -0.343299931951E+03   -0.11077E-01   -0.11088E-01  7488   0.197E+00-0.143E-04
CGA:   5    -0.343310964687E+03   -0.11033E-01   -0.11024E-01  7488   0.929E-01 0.907E-03
CGA:   6    -0.343315485340E+03   -0.45207E-02   -0.45221E-02  7488   0.349E-01 0.303E-03
CGA:   7    -0.343317911468E+03   -0.24261E-02   -0.24310E-02  7488   0.211E-01-0.207E-03
CGA:   8    -0.343319512271E+03   -0.16008E-02   -0.16014E-02  7488   0.138E-01-0.266E-04
CGA:   9    -0.343319966885E+03   -0.45461E-03   -0.45460E-03  7488   0.364E-02-0.100E-04
CGA:  10    -0.343320101328E+03   -0.13444E-03   -0.13444E-03  7488   0.305E-02-0.221E-05
CGA:  11    -0.343320314910E+03   -0.21358E-03   -0.21374E-03  7488   0.321E-02-0.833E-05
CGA:  12    -0.343320402333E+03   -0.87422E-04   -0.87331E-04  7488   0.692E-03-0.551E-05
CGA:  13    -0.343320431884E+03   -0.29552E-04   -0.29521E-04  7488   0.493E-03-0.383E-05
CGA:  14    -0.343320495360E+03   -0.63476E-04   -0.64383E-04  7488   0.356E-03-0.113E-04
CGA:  15    -0.343320508018E+03   -0.12658E-04   -0.12619E-04  7488   0.130E-03-0.226E-05
CGA:  16    -0.343320512928E+03   -0.49103E-05   -0.49026E-05  7488   0.120E-03-0.504E-06
  52 F= -.34332051E+03 E0= -.34329915E+03  d E =-.236523E-02  mag=    20.0000
       N       E                     dE             d eps       ncg     rms          ort
SDA:   1    -0.343291927048E+03    0.28581E-01    0.00000E+00  7488   0.376E+00 0.000E+00
CGA:   2    -0.343300023030E+03   -0.80960E-02   -0.80677E-02  7488   0.106E+00 0.845E-03
CGA:   3    -0.343305005893E+03   -0.49829E-02   -0.49797E-02  7488   0.112E+00-0.266E-03
CGA:   4    -0.343312769321E+03   -0.77634E-02   -0.77607E-02  7488   0.118E+00 0.115E-03
CGA:   5    -0.343317525697E+03   -0.47564E-02   -0.47634E-02  7488   0.473E-01 0.130E-03
CGA:   6    -0.343319188631E+03   -0.16629E-02   -0.16624E-02  7488   0.159E-01-0.901E-05
CGA:   7    -0.343320807354E+03   -0.16187E-02   -0.16192E-02  7488   0.169E-01-0.907E-05
CGA:   8    -0.343321512478E+03   -0.70512E-03   -0.70474E-03  7488   0.489E-02-0.243E-04
CGA:   9    -0.343321665982E+03   -0.15350E-03   -0.15339E-03  7488   0.332E-02-0.549E-05
CGA:  10    -0.343321825685E+03   -0.15970E-03   -0.15968E-03  7488   0.188E-02-0.579E-05
CGA:  11    -0.343321906089E+03   -0.80404E-04   -0.80416E-04  7488   0.948E-03-0.645E-06
CGA:  12    -0.343321958709E+03   -0.52620E-04   -0.52631E-04  7488   0.926E-03-0.227E-05
CGA:  13    -0.343321995498E+03   -0.36789E-04   -0.36752E-04  7488   0.176E-03-0.340E-05
CGA:  14    -0.343322012747E+03   -0.17248E-04   -0.17462E-04  7488   0.394E-03-0.436E-05
CGA:  15    -0.343322027871E+03   -0.15124E-04   -0.15068E-04  7488   0.228E-03-0.410E-05
CGA:  16    -0.343322034276E+03   -0.64050E-05   -0.63652E-05  7488   0.399E-04-0.161E-05
  53 F= -.34332203E+03 E0= -.34330066E+03  d E =-.152135E-02  mag=    20.0000
       N       E                     dE             d eps       ncg     rms          ort
SDA:   1    -0.343311674105E+03    0.10354E-01    0.00000E+00  7488   0.255E+00 0.000E+00
CGA:   2    -0.343316669565E+03   -0.49955E-02   -0.50430E-02  7488   0.302E-01-0.166E-02
CGA:   3    -0.343318182637E+03   -0.15131E-02   -0.15131E-02  7488   0.289E-01 0.324E-04
CGA:   4    -0.343320260989E+03   -0.20784E-02   -0.20783E-02  7488   0.451E-01 0.316E-05
CGA:   5    -0.343321605219E+03   -0.13442E-02   -0.13440E-02  7488   0.126E-01 0.689E-05
CGA:   6    -0.343322173326E+03   -0.56811E-03   -0.56827E-03  7488   0.559E-02 0.986E-05
CGA:   7    -0.343322597897E+03   -0.42457E-03   -0.42467E-03  7488   0.471E-02-0.395E-05
CGA:   8    -0.343322859362E+03   -0.26147E-03   -0.26152E-03  7488   0.238E-02-0.103E-04
CGA:   9    -0.343322941894E+03   -0.82532E-04   -0.82500E-04  7488   0.116E-02-0.194E-05
CGA:  10    -0.343322990960E+03   -0.49066E-04   -0.49062E-04  7488   0.572E-03-0.390E-06
CGA:  11    -0.343323010181E+03   -0.19220E-04   -0.19240E-04  7488   0.318E-03 0.122E-05
CGA:  12    -0.343323026438E+03   -0.16257E-04   -0.16255E-04  7488   0.343E-03 0.162E-05
CGA:  13    -0.343323046274E+03   -0.19836E-04   -0.19826E-04  7488   0.579E-04 0.130E-05
CGA:  14    -0.343323050030E+03   -0.37563E-05   -0.37637E-05  7488   0.726E-04-0.512E-06
  54 F= -.34332305E+03 E0= -.34330168E+03  d E =-.101575E-02  mag=    20.0000
       N       E                     dE             d eps       ncg     rms          ort
SDA:   1    -0.343281109595E+03    0.41937E-01    0.00000E+00  7488   0.895E+00 0.000E+00
CGA:   2    -0.343295469376E+03   -0.14360E-01   -0.14342E-01  7488   0.109E+00 0.751E-03
CGA:   3    -0.343303486792E+03   -0.80174E-02   -0.80195E-02  7488   0.185E+00-0.722E-04
CGA:   4    -0.343315414552E+03   -0.11928E-01   -0.11921E-01  7488   0.145E+00 0.360E-03
CGA:   5    -0.343319791678E+03   -0.43771E-02   -0.43998E-02  7488   0.289E-01-0.198E-03
CGA:   6    -0.343321780405E+03   -0.19887E-02   -0.19896E-02  7488   0.350E-01-0.348E-04
CGA:   7    -0.343324063535E+03   -0.22831E-02   -0.22834E-02  7488   0.128E-01-0.133E-04
CGA:   8    -0.343324603061E+03   -0.53953E-03   -0.53991E-03  7488   0.562E-02 0.159E-04
CGA:   9    -0.343324747814E+03   -0.14475E-03   -0.14482E-03  7488   0.272E-02 0.594E-05
CGA:  10    -0.343325009440E+03   -0.26163E-03   -0.26110E-03  7488   0.209E-02 0.119E-04
CGA:  11    -0.343325074378E+03   -0.64937E-04   -0.65011E-04  7488   0.807E-03 0.459E-05
CGA:  12    -0.343325117260E+03   -0.42882E-04   -0.42877E-04  7488   0.598E-03 0.415E-05
CGA:  13    -0.343325151517E+03   -0.34257E-04   -0.34239E-04  7488   0.350E-03 0.348E-05
CGA:  14    -0.343325166861E+03   -0.15344E-04   -0.15357E-04  7488   0.419E-03 0.159E-05
CGA:  15    -0.343325185953E+03   -0.19091E-04   -0.19104E-04  7488   0.145E-03 0.203E-05
CGA:  16    -0.343325191998E+03   -0.60455E-05   -0.60477E-05  7488   0.586E-04 0.227E-06
  55 F= -.34332519E+03 E0= -.34330380E+03  d E =-.214197E-02  mag=    20.0000
       N       E                     dE             d eps       ncg     rms          ort
SDA:   1    -0.343283000727E+03    0.42185E-01    0.00000E+00  7488   0.802E+00 0.000E+00
CGA:   2    -0.343297204738E+03   -0.14204E-01   -0.13923E-01  7488   0.104E+00 0.122E-01
CGA:   3    -0.343303509351E+03   -0.63046E-02   -0.63024E-02  7488   0.169E+00 0.168E-03
CGA:   4    -0.343313704388E+03   -0.10195E-01   -0.10194E-01  7488   0.177E+00 0.763E-04
CGA:   5    -0.343320314272E+03   -0.66099E-02   -0.66056E-02  7488   0.386E-01-0.134E-04
CGA:   6    -0.343322232713E+03   -0.19184E-02   -0.19180E-02  7488   0.241E-01-0.102E-03
CGA:   7    -0.343323774301E+03   -0.15416E-02   -0.15411E-02  7488   0.287E-01 0.312E-04
CGA:   8    -0.343324637160E+03   -0.86286E-03   -0.86323E-03  7488   0.105E-01 0.102E-04
CGA:   9    -0.343324981603E+03   -0.34444E-03   -0.34486E-03  7488   0.242E-02 0.100E-04
CGA:  10    -0.343325181111E+03   -0.19951E-03   -0.19925E-03  7488   0.309E-02 0.798E-05
CGA:  11    -0.343325300057E+03   -0.11895E-03   -0.11900E-03  7488   0.136E-02 0.472E-05
CGA:  12    -0.343325355391E+03   -0.55333E-04   -0.55358E-04  7488   0.563E-03 0.320E-05
CGA:  13    -0.343325396448E+03   -0.41058E-04   -0.40967E-04  7488   0.387E-03 0.414E-05
CGA:  14    -0.343325407992E+03   -0.11544E-04   -0.11574E-04  7488   0.306E-03 0.141E-05
CGA:  15    -0.343325433816E+03   -0.25825E-04   -0.25724E-04  7488   0.173E-03 0.304E-05
CGA:  16    -0.343325440716E+03   -0.69000E-05   -0.69102E-05  7488   0.401E-04 0.779E-06
  56 F= -.34332544E+03 E0= -.34330405E+03  d E =-.248718E-03  mag=    20.0000
       N       E                     dE             d eps       ncg     rms          ort
SDA:   1    -0.343283084826E+03    0.42349E-01    0.00000E+00  7488   0.404E+00 0.000E+00
CGA:   2    -0.343292076912E+03   -0.89921E-02   -0.89389E-02  7488   0.123E+00 0.159E-02
CGA:   3    -0.343304281702E+03   -0.12205E-01   -0.12210E-01  7488   0.226E+00-0.115E-03
CGA:   4    -0.343312659858E+03   -0.83782E-02   -0.83739E-02  7488   0.131E+00-0.903E-05
CGA:   5    -0.343316885968E+03   -0.42261E-02   -0.42241E-02  7488   0.444E-01 0.277E-04
CGA:   6    -0.343319930022E+03   -0.30441E-02   -0.30481E-02  7488   0.338E-01-0.180E-03
CGA:   7    -0.343321841803E+03   -0.19118E-02   -0.19114E-02  7488   0.157E-01 0.478E-04
CGA:   8    -0.343322724090E+03   -0.88229E-03   -0.88219E-03  7488   0.763E-02 0.213E-04
CGA:   9    -0.343322996607E+03   -0.27252E-03   -0.27250E-03  7488   0.542E-02 0.422E-06
CGA:  10    -0.343323187913E+03   -0.19131E-03   -0.19131E-03  7488   0.189E-02-0.938E-07
CGA:  11    -0.343323309205E+03   -0.12129E-03   -0.12129E-03  7488   0.215E-02 0.474E-06
CGA:  12    -0.343323401477E+03   -0.92272E-04   -0.92282E-04  7488   0.765E-03 0.104E-05
CGA:  13    -0.343323426786E+03   -0.25309E-04   -0.25309E-04  7488   0.309E-03 0.225E-06
CGA:  14    -0.343323462641E+03   -0.35855E-04   -0.35868E-04  7488   0.640E-03-0.206E-06
CGA:  15    -0.343323480914E+03   -0.18273E-04   -0.18259E-04  7488   0.209E-03-0.582E-06
CGA:  16    -0.343323487871E+03   -0.69568E-05   -0.69502E-05  7488   0.641E-04-0.337E-06
  57 F= -.34332349E+03 E0= -.34330212E+03  d E =0.195285E-02  mag=    20.0000
       N       E                     dE             d eps       ncg     rms          ort
SDA:   1    -0.343293500209E+03    0.29981E-01    0.00000E+00  7488   0.333E+00 0.000E+00
CGA:   2    -0.343300160473E+03   -0.66603E-02   -0.66709E-02  7488   0.100E+00-0.382E-03
CGA:   3    -0.343306299577E+03   -0.61391E-02   -0.61381E-02  7488   0.124E+00 0.879E-04
CGA:   4    -0.343314394648E+03   -0.80951E-02   -0.81005E-02  7488   0.731E-01-0.324E-03
CGA:   5    -0.343316988501E+03   -0.25939E-02   -0.25963E-02  7488   0.405E-01 0.581E-07
CGA:   6    -0.343319238558E+03   -0.22501E-02   -0.22499E-02  7488   0.227E-01 0.420E-04
CGA:   7    -0.343320467927E+03   -0.12294E-02   -0.12294E-02  7488   0.157E-01-0.418E-04
CGA:   8    -0.343321042026E+03   -0.57410E-03   -0.57402E-03  7488   0.115E-01-0.197E-05
CGA:   9    -0.343321464734E+03   -0.42271E-03   -0.42272E-03  7488   0.347E-02-0.182E-05
CGA:  10    -0.343321645578E+03   -0.18084E-03   -0.18085E-03  7488   0.131E-02-0.101E-04
CGA:  11    -0.343321734987E+03   -0.89409E-04   -0.89474E-04  7488   0.174E-02-0.414E-05
CGA:  12    -0.343321802854E+03   -0.67867E-04   -0.67811E-04  7488   0.820E-03-0.412E-05
CGA:  13    -0.343321827922E+03   -0.25068E-04   -0.25039E-04  7488   0.250E-03-0.159E-05
CGA:  14    -0.343321841562E+03   -0.13640E-04   -0.13646E-04  7488   0.388E-03-0.158E-05
CGA:  15    -0.343321868876E+03   -0.27314E-04   -0.27396E-04  7488   0.209E-03-0.413E-05
CGA:  16    -0.343321875738E+03   -0.68615E-05   -0.68396E-05  7488   0.520E-04-0.117E-05
  58 F= -.34332188E+03 E0= -.34330050E+03  d E =0.161213E-02  mag=    20.0000
       N       E                     dE             d eps       ncg     rms          ort
SDA:   1    -0.343309097516E+03    0.12771E-01    0.00000E+00  7488   0.675E+00 0.000E+00
CGA:   2    -0.343318529385E+03   -0.94319E-02   -0.94351E-02  7488   0.146E-01-0.336E-03
CGA:   3    -0.343319404361E+03   -0.87498E-03   -0.87506E-03  7488   0.134E-01-0.625E-05
CGA:   4    -0.343320980094E+03   -0.15757E-02   -0.15751E-02  7488   0.816E-02 0.100E-04
CGA:   5    -0.343321380327E+03   -0.40023E-03   -0.40009E-03  7488   0.456E-02-0.123E-04
CGA:   6    -0.343321652211E+03   -0.27188E-03   -0.27190E-03  7488   0.604E-02-0.276E-05
CGA:   7    -0.343321857281E+03   -0.20507E-03   -0.20505E-03  7488   0.229E-02-0.299E-05
CGA:   8    -0.343321944062E+03   -0.86781E-04   -0.86796E-04  7488   0.683E-03-0.580E-07
CGA:   9    -0.343321968998E+03   -0.24936E-04   -0.24931E-04  7488   0.500E-03-0.497E-06
CGA:  10    -0.343322007720E+03   -0.38722E-04   -0.38760E-04  7488   0.269E-03-0.144E-05
CGA:  11    -0.343322019059E+03   -0.11339E-04   -0.11333E-04  7488   0.118E-03-0.518E-06
CGA:  12    -0.343322024450E+03   -0.53911E-05   -0.53891E-05  7488   0.115E-03-0.298E-06
  59 F= -.34332202E+03 E0= -.34330064E+03  d E =-.148712E-03  mag=    20.0000
