       N       E                     dE             d eps       ncg     rms          rms(c)
DAV:   1     0.526339851498E+04    0.52634E+04   -0.24506E+05 29936   0.163E+03
DAV:   2     0.293671706428E+03   -0.49697E+04   -0.46640E+04 30944   0.473E+02
DAV:   3    -0.316725289640E+03   -0.61040E+03   -0.57175E+03 32376   0.177E+02
DAV:   4    -0.342167425421E+03   -0.25442E+02   -0.24888E+02 34144   0.383E+01
DAV:   5    -0.343066673878E+03   -0.89925E+00   -0.89563E+00 42672   0.682E+00    0.682E-01
DAV:   6    -0.343265157312E+03   -0.19848E+00   -0.38122E-01 44584   0.131E+00    0.706E+00
DAV:   7    -0.343225498336E+03    0.39659E-01   -0.27126E-01 40144   0.625E-01    0.367E+00
DAV:   8    -0.343236971953E+03   -0.11474E-01   -0.43962E-02 34480   0.387E-01    0.293E+00
DAV:   9    -0.343232869747E+03    0.41022E-02   -0.10502E-02 33008   0.268E-01    0.174E+00
DAV:  10    -0.343234139358E+03   -0.12696E-02   -0.72632E-04 30752   0.957E-02    0.170E+00
DAV:  11    -0.343234370235E+03   -0.23088E-03   -0.54786E-04 35096   0.503E-02    0.185E+00
DAV:  12    -0.343234076589E+03    0.29365E-03   -0.12332E-03 36544   0.853E-02    0.187E+00
DAV:  13    -0.343234045163E+03    0.31427E-04   -0.17484E-04 28376   0.509E-02    0.188E+00
DAV:  14    -0.343233921890E+03    0.12327E-03   -0.97594E-05 22664   0.266E-02    0.188E+00
DAV:  15    -0.343234063628E+03   -0.14174E-03   -0.58420E-04 32032   0.509E-02    0.187E+00
DAV:  16    -0.343234159367E+03   -0.95739E-04   -0.24406E-03 37584   0.976E-02    0.194E+00
DAV:  17    -0.343233799987E+03    0.35938E-03   -0.51949E-03 38824   0.161E-01    0.180E+00
DAV:  18    -0.343233540125E+03    0.25986E-03   -0.43003E-03 39200   0.167E-01    0.120E+00
DAV:  19    -0.343233961847E+03   -0.42172E-03   -0.60434E-03 39264   0.174E-01    0.654E-01
DAV:  20    -0.343234689607E+03   -0.72776E-03   -0.30499E-03 38728   0.144E-01    0.573E-01
DAV:  21    -0.343234854794E+03   -0.16519E-03   -0.18395E-03 38160   0.116E-01    0.743E-01
DAV:  22    -0.343234708183E+03    0.14661E-03   -0.35602E-04 35000   0.662E-02    0.819E-01
DAV:  23    -0.343234577788E+03    0.13040E-03   -0.82993E-05 24800   0.267E-02    0.878E-01
DAV:  24    -0.343234436034E+03    0.14175E-03   -0.41975E-05 19136   0.200E-02    0.870E-01
DAV:  25    -0.343234415701E+03    0.20333E-04   -0.30597E-05 20816   0.175E-02    0.862E-01
DAV:  26    -0.343234402427E+03    0.13273E-04   -0.14808E-05 18024   0.133E-02    0.855E-01
DAV:  27    -0.343234191957E+03    0.21047E-03   -0.23005E-04 29344   0.408E-02    0.806E-01
DAV:  28    -0.343233886489E+03    0.30547E-03   -0.65996E-04 35920   0.558E-02    0.730E-01
DAV:  29    -0.343234039760E+03   -0.15327E-03   -0.17898E-04 32232   0.453E-02    0.734E-01
DAV:  30    -0.343234139471E+03   -0.99710E-04   -0.56037E-05 26264   0.266E-02    0.759E-01
DAV:  31    -0.343234112897E+03    0.26574E-04   -0.13761E-05 17864   0.145E-02    0.751E-01
DAV:  32    -0.343234174349E+03   -0.61452E-04   -0.48427E-05 20704   0.212E-02    0.712E-01
DAV:  33    -0.343234401261E+03   -0.22691E-03   -0.23113E-04 33328   0.434E-02    0.613E-01
DAV:  34    -0.343234738407E+03   -0.33715E-03   -0.47892E-04 35616   0.706E-02    0.434E-01
DAV:  35    -0.343234958270E+03   -0.21986E-03   -0.26091E-04 33128   0.458E-02    0.377E-01
DAV:  36    -0.343235020970E+03   -0.62700E-04   -0.16513E-04 29832   0.334E-02    0.365E-01
DAV:  37    -0.343235030450E+03   -0.94802E-05   -0.22517E-04 30736   0.437E-02    0.316E-01
DAV:  38    -0.343235120531E+03   -0.90081E-04   -0.13233E-04 32304   0.425E-02    0.235E-01
DAV:  39    -0.343235225747E+03   -0.10522E-03   -0.13404E-04 30944   0.417E-02    0.158E-01
DAV:  40    -0.343235275580E+03   -0.49833E-04   -0.51333E-05 25416   0.240E-02    0.135E-01
DAV:  41    -0.343235301829E+03   -0.26249E-04   -0.56665E-05 23984   0.265E-02    0.100E-01
DAV:  42    -0.343235298615E+03    0.32143E-05   -0.38148E-05 23520   0.218E-02
   1 F= -.34323530E+03 E0= -.34320853E+03  d E =-.343235E+03  mag=     1.1554
