 vasp.6.3.1 04May22 (build May 12 2023 15:13:28) complex                        
  
 executed on             LinuxIFC date 2023.07.11  04:35:51
 running  128 mpi-ranks, with    1 threads/rank
 distrk:  each k-point on  128 cores,    1 groups
 distr:  one band on NCORE=  16 cores,    8 groups


--------------------------------------------------------------------------------------------------------


 INCAR:
   ALGO = Normal
   EDIFF = 1E-5
   EDIFFG = -0.03
   ENCUT = 520
   IBRION = 2
   ICHARG = 1
   ISIF = 3
   ISYM = 0
   ISPIN = 2
   LREAL = Auto
   NELMIN = 6
   NELM = 200
   NSW = 99
   PREC = Accurate
   ISMEAR = 0
   SIGMA = 0.05
   MAGMOM = 1*0.06 12*1.5 42*0.06
   LWAVE = False
   LORBIT = 11
   NWRITE = 1
   LPLANE = True
   NCORE = 16
   NSIM = 4

 POTCAR:    PAW_PBE Ca_sv 06Sep2000               
 POTCAR:    PAW_PBE V_pv 07Sep2000                
 POTCAR:    PAW_PBE F 08Apr2002                   
 POTCAR:    PAW_PBE Ca_sv 06Sep2000               
  local pseudopotential read in
  partial core-charges read in
  partial kinetic energy density read in
  atomic valenz-charges read in
  non local Contribution for L=           0  read in
    real space projection operators read in
  non local Contribution for L=           0  read in
    real space projection operators read in
  non local Contribution for L=           1  read in
    real space projection operators read in
  non local Contribution for L=           1  read in
    real space projection operators read in
  non local Contribution for L=           2  read in
    real space projection operators read in
  non local Contribution for L=           2  read in
    real space projection operators read in
    PAW grid and wavefunctions read in
 
   number of l-projection  operators is LMAX  =           6
   number of lm-projection operators is LMMAX =          18
 
 POTCAR:    PAW_PBE V_pv 07Sep2000                
  local pseudopotential read in
  partial core-charges read in
  partial kinetic energy density read in
  atomic valenz-charges read in
  non local Contribution for L=           1  read in
    real space projection operators read in
  non local Contribution for L=           1  read in
    real space projection operators read in
  non local Contribution for L=           2  read in
    real space projection operators read in
  non local Contribution for L=           2  read in
    real space projection operators read in
  non local Contribution for L=           0  read in
    real space projection operators read in
  non local Contribution for L=           0  read in
    real space projection operators read in
    PAW grid and wavefunctions read in
 
   number of l-projection  operators is LMAX  =           6
   number of lm-projection operators is LMMAX =          18
 
 POTCAR:    PAW_PBE F 08Apr2002                   
  local pseudopotential read in
  partial core-charges read in
  partial kinetic energy density read in
  atomic valenz-charges read in
  non local Contribution for L=           0  read in
    real space projection operators read in
  non local Contribution for L=           0  read in
    real space projection operators read in
  non local Contribution for L=           1  read in
    real space projection operators read in
  non local Contribution for L=           1  read in
    real space projection operators read in
    PAW grid and wavefunctions read in
 
   number of l-projection  operators is LMAX  =           4
   number of lm-projection operators is LMMAX =           8
 
 Optimization of the real space projectors (new method)

 maximal supplied QI-value         = 16.25
 optimisation between [QCUT,QGAM] = [ 11.54, 23.24] = [ 37.28,151.24] Ry 
 Optimized for a Real-space Cutoff    1.58 Angstroem

   l    n(q)    QCUT    max X(q) W(low)/X(q) W(high)/X(q)  e(spline) 
   0     11    11.539    11.817    0.25E-04    0.22E-05    0.26E-07
   0     11    11.539     8.461    0.39E-04    0.49E-05    0.55E-07
   1     11    11.539     3.957    0.21E-05    0.44E-05    0.32E-07
   1     11    11.539     4.314    0.56E-04    0.44E-04    0.19E-06
   2     10    11.539    14.565    0.25E-03    0.21E-04    0.75E-06
   2     10    11.539    14.552    0.23E-03    0.22E-04    0.72E-06
 Optimization of the real space projectors (new method)

 maximal supplied QI-value         = 16.25
 optimisation between [QCUT,QGAM] = [ 11.54, 23.24] = [ 37.28,151.24] Ry 
 Optimized for a Real-space Cutoff    1.53 Angstroem

   l    n(q)    QCUT    max X(q) W(low)/X(q) W(high)/X(q)  e(spline) 
   1     10    11.539     3.206    0.43E-05    0.46E-05    0.52E-07
   1     10    11.539     4.597    0.39E-04    0.25E-04    0.17E-06
   2     10    11.539    89.000    0.10E-03    0.13E-03    0.24E-06
   2     10    11.539    82.410    0.10E-03    0.13E-03    0.23E-06
   0     11    11.539    36.565    0.42E-04    0.19E-04    0.30E-06
   0     11    11.539    13.729    0.20E-04    0.13E-04    0.22E-06
 Optimization of the real space projectors (new method)

 maximal supplied QI-value         = 24.76
 optimisation between [QCUT,QGAM] = [ 11.64, 23.27] = [ 37.91,151.63] Ry 
 Optimized for a Real-space Cutoff    1.04 Angstroem

   l    n(q)    QCUT    max X(q) W(low)/X(q) W(high)/X(q)  e(spline) 
   0      7    11.635    14.049    0.77E-04    0.36E-03    0.13E-06
   0      7    11.635     8.945    0.12E-03    0.48E-03    0.17E-06
   1      7    11.635     7.086    0.24E-03    0.44E-03    0.21E-06
   1      7    11.635     6.747    0.23E-03    0.35E-03    0.19E-06
  PAW_PBE Ca_sv 06Sep2000               :
 energy of atom  1       EATOM=-1006.0909
 kinetic energy error for atom=    0.0022 (will be added to EATOM!!)
  PAW_PBE V_pv 07Sep2000                :
 energy of atom  2       EATOM=-1321.6206
 kinetic energy error for atom=    0.0054 (will be added to EATOM!!)
  PAW_PBE F 08Apr2002                   :
 energy of atom  3       EATOM= -659.6475
 kinetic energy error for atom=    0.0323 (will be added to EATOM!!)
 
 
 POSCAR: V12 F42
  positions in direct lattice
  velocities in cartesian coordinates
 exchange correlation table for  LEXCH =        8
   RHO(1)=    0.500       N(1)  =     2000
   RHO(2)=  100.500       N(2)  =     4000
 


--------------------------------------------------------------------------------------------------------


 ion  position               nearest neighbor table
   1  0.844  0.501  0.324-  38 2.21  43 2.26  24 2.33  37 2.44  16 2.51
   2  0.295  0.001  0.334-  21 1.76  24 1.88  27 1.98  16 2.01  17 2.01  30 2.02
   3  0.717  0.718  0.998-  25 1.75  22 1.76  14 1.94  18 1.95  28 1.98  31 2.03
   4  0.004  0.285  0.669-  20 1.74  23 1.77  15 1.94  19 1.97  26 1.98  29 2.01
   5  0.354  0.000  0.834-  41 1.76  40 1.76  34 1.95  46 1.95  35 1.95  47 1.95
   6  0.646  0.651  0.507-  42 1.76  38 1.90  36 1.95  48 1.95  44 1.96  32 1.96
   7  0.996  0.345  0.161-  39 1.76  43 1.90  49 1.92  33 1.93  45 1.93  37 2.03
   8  0.651  0.150  0.501-  19 1.92  53 1.93  36 1.95  48 1.95  51 1.99  30 2.02
   9  0.491  0.347  0.161-  31 1.90  49 1.92  52 1.95  54 1.97  37 2.00  17 2.00
  10  0.854  0.501  0.833-  29 1.93  50 1.94  55 1.94  35 1.95  47 1.95  18 1.95
  11  0.354  0.500  0.835-  50 1.93  55 1.93  34 1.95  28 1.95  46 1.95  15 1.96
  12  0.150  0.652  0.505-  26 1.91  32 1.93  44 1.94  53 1.96  16 1.99  51 2.02
  13  0.498  0.848  0.165-  14 1.90  27 1.93  33 1.96  52 1.96  45 1.97  54 1.98
  14  0.582  0.823  0.065-  13 1.90   3 1.94
  15  0.255  0.426  0.730-   4 1.94  11 1.96
  16  0.171  0.738  0.397-  12 1.99   2 2.01   1 2.51
  17  0.450  0.263  0.271-   9 2.00   2 2.01
  18  0.829  0.577  0.936-   3 1.95  10 1.95
  19  0.757  0.171  0.602-   8 1.92   4 1.97
  20  0.881  0.074  0.731-   4 1.74
  21  0.193  0.119  0.395-   2 1.76
  22  0.927  0.802  0.062-   3 1.76
  23  0.130  0.205  0.602-   4 1.77
  24  0.051  0.841  0.278-   2 1.88   1 2.33
  25  0.804  0.927  0.933-   3 1.75
  26  0.105  0.542  0.606-  12 1.91   4 1.98
  27  0.430  0.886  0.268-  13 1.93   2 1.98
  28  0.454  0.567  0.939-  11 1.95   3 1.98
  29  0.883  0.431  0.729-  10 1.93   4 2.01
  30  0.571  0.140  0.391-   8 2.02   2 2.02
  31  0.566  0.450  0.060-   9 1.90   3 2.03
  32  0.354  0.566  0.486-  12 1.93   6 1.96
  33  0.208  0.634  0.145-   7 1.93  13 1.96
  34  0.436  0.791  0.815-   5 1.95  11 1.95
  35  0.645  0.211  0.854-  10 1.95   5 1.95
  36  0.572  0.360  0.522-   8 1.95   6 1.95
  37  0.787  0.439  0.188-   9 2.00   7 2.03   1 2.44
  38  0.682  0.610  0.402-   6 1.90   1 2.21
  39  0.919  0.310  0.065-   7 1.76
  40  0.391  0.070  0.736-   5 1.76
  41  0.316  0.930  0.931-   5 1.76
  42  0.615  0.689  0.604-   6 1.76
  43  0.047  0.390  0.267-   7 1.90   1 2.26
  44  0.942  0.735  0.520-  12 1.94   6 1.96
  45  0.789  0.061  0.188-   7 1.93  13 1.97
  46  0.270  0.207  0.854-   5 1.95  11 1.95
  47  0.063  0.792  0.813-  10 1.95   5 1.95
  48  0.725  0.937  0.478-   8 1.95   6 1.95
  49  0.200  0.257  0.150-   9 1.92   7 1.92
  50  0.627  0.550  0.805-  11 1.93  10 1.94
  51  0.920  0.381  0.461-   8 1.99  12 2.02
  52  0.441  0.071  0.133-   9 1.95  13 1.96
  53  0.374  0.934  0.531-   8 1.93  12 1.96
  54  0.550  0.623  0.199-   9 1.97  13 1.98
  55  0.080  0.451  0.862-  11 1.93  10 1.94
 

IMPORTANT INFORMATION: All symmetrisations will be switched off!
NOSYMM: (Re-)initialisation of all symmetry stuff for point group C_1.


----------------------------------------------------------------------------------------

                                     Primitive cell                                     

  volume of cell :     827.8311

  direct lattice vectors                    reciprocal lattice vectors
     7.376459915 -0.007374283 -0.097411689     0.135615919  0.078101327 -0.002161463
    -3.680253419  6.392593383  0.078224744     0.000157805  0.156520652  0.000100719
     0.286578381 -0.011589756 17.561911972     0.000751526 -0.000263969  0.056928971

  length of vectors
     7.377106770  7.376695365 17.564253859     0.156512513  0.156520764  0.056934543

  position of ions in fractional coordinates (direct lattice)
     0.843970159  0.500955976  0.324390525
     0.295174231  0.001295519  0.334230328
     0.717356746  0.718286505  0.997951282
     0.003917327  0.284633353  0.668681814
     0.353840933  0.000261995  0.833715266
     0.646432778  0.651302436  0.506981742
     0.996322445  0.344805877  0.161148197
     0.650876849  0.150296715  0.501104188
     0.491299257  0.347118957  0.161234466
     0.854261938  0.500589879  0.832546933
     0.354073391  0.499951256  0.834716363
     0.149594513  0.651526028  0.505037662
     0.497830959  0.848462242  0.165326534
     0.581551408  0.822640694  0.065286767
     0.254580569  0.426425076  0.729872256
     0.170615410  0.738258468  0.396810611
     0.449913893  0.262806787  0.270961099
     0.829021544  0.576869202  0.936491159
     0.756901636  0.171308970  0.602453148
     0.880564812  0.073792929  0.731399392
     0.192851236  0.119438638  0.394714328
     0.926542899  0.802445878  0.062024324
     0.129934975  0.204810984  0.602164516
     0.050611341  0.840670677  0.277674978
     0.803625222  0.927306848  0.933372589
     0.104648289  0.542310584  0.606383517
     0.430264487  0.885971696  0.268319594
     0.453570996  0.567435628  0.939259599
     0.883018536  0.430568300  0.729255798
     0.570755606  0.140427782  0.390584420
     0.566171430  0.450276847  0.059865340
     0.353755682  0.565811682  0.485669130
     0.207674458  0.634215309  0.145373477
     0.436140626  0.791280868  0.814806542
     0.644746521  0.210671036  0.853766992
     0.571615397  0.360384788  0.521992403
     0.787422940  0.438570243  0.187971210
     0.682212426  0.609505763  0.402282472
     0.919231155  0.310003072  0.065123300
     0.391110914  0.070254971  0.736451975
     0.315563771  0.929602973  0.930881809
     0.614940588  0.689441188  0.603835341
     0.047114309  0.390428041  0.267472973
     0.941520074  0.734838672  0.520475787
     0.788917162  0.060994873  0.188053772
     0.269603316  0.207408373  0.853502314
     0.062925859  0.791582332  0.812574716
     0.725393172  0.937277645  0.478433108
     0.199987132  0.256542240  0.150313366
     0.627272301  0.549940151  0.805363413
     0.920118015  0.381309703  0.460566895
     0.441402758  0.070732833  0.133253902
     0.373964784  0.933683483  0.530794045
     0.550392576  0.622952055  0.198706606
     0.079555054  0.450611133  0.861938888

  ion indices of the primitive-cell ions
   primitive index   ion index
                 1           1
                 2           2
                 3           3
                 4           4
                 5           5
                 6           6
                 7           7
                 8           8
                 9           9
                10          10
                11          11
                12          12
                13          13
                14          14
                15          15
                16          16
                17          17
                18          18
                19          19
                20          20
                21          21
                22          22
                23          23
                24          24
                25          25
                26          26
                27          27
                28          28
                29          29
                30          30
                31          31
                32          32
                33          33
                34          34
                35          35
                36          36
                37          37
                38          38
                39          39
                40          40
                41          41
                42          42
                43          43
                44          44
                45          45
                46          46
                47          47
                48          48
                49          49
                50          50
                51          51
                52          52
                53          53
                54          54
                55          55

----------------------------------------------------------------------------------------

 
 
 KPOINTS: Fully automatic kpoint scheme           

Automatic generation of k-mesh.
 Grid dimensions derived from RKLEN:
 generate k-points for:    5    5    2

 Generating k-lattice:

  Cartesian coordinates                     Fractional coordinates (reciprocal lattice)
     0.027123184  0.015620265 -0.000432293     0.200000000 -0.000000000 -0.000000000
     0.000031561  0.031304130  0.000020144    -0.000000000  0.200000000 -0.000000000
     0.000375763 -0.000131985  0.028464485    -0.000000000  0.000000000  0.500000000

  Length of vectors
     0.031302503  0.031304153  0.028467271

  Shift w.r.t. Gamma in fractional coordinates (k-lattice)
     0.000000000  0.000000000  0.000000000

 
 Subroutine IBZKPT returns following result:
 ===========================================
 
 Found     26 irreducible k-points:
 
 Following reciprocal coordinates:
            Coordinates               Weight
  0.000000  0.000000  0.000000      1.000000
  0.200000  0.000000 -0.000000      2.000000
  0.400000  0.000000 -0.000000      2.000000
 -0.000000  0.200000 -0.000000      2.000000
  0.200000  0.200000  0.000000      2.000000
  0.400000  0.200000 -0.000000      2.000000
 -0.400000  0.200000  0.000000      2.000000
 -0.200000  0.200000  0.000000      2.000000
  0.000000  0.400000 -0.000000      2.000000
  0.200000  0.400000 -0.000000      2.000000
  0.400000  0.400000 -0.000000      2.000000
 -0.400000  0.400000  0.000000      2.000000
 -0.200000  0.400000  0.000000      2.000000
 -0.000000  0.000000  0.500000      1.000000
  0.200000  0.000000  0.500000      2.000000
  0.400000  0.000000  0.500000      2.000000
 -0.000000  0.200000  0.500000      2.000000
  0.200000  0.200000  0.500000      2.000000
  0.400000  0.200000  0.500000      2.000000
 -0.400000  0.200000  0.500000      2.000000
 -0.200000  0.200000  0.500000      2.000000
 -0.000000  0.400000  0.500000      2.000000
  0.200000  0.400000  0.500000      2.000000
  0.400000  0.400000  0.500000      2.000000
 -0.400000  0.400000  0.500000      2.000000
 -0.200000  0.400000  0.500000      2.000000
 
 Following cartesian coordinates:
            Coordinates               Weight
  0.000000  0.000000  0.000000      1.000000
  0.027123  0.015620 -0.000432      2.000000
  0.054246  0.031241 -0.000865      2.000000
  0.000032  0.031304  0.000020      2.000000
  0.027155  0.046924 -0.000412      2.000000
  0.054278  0.062545 -0.000844      2.000000
 -0.054215  0.000064  0.000885      2.000000
 -0.027092  0.015684  0.000452      2.000000
  0.000063  0.062608  0.000040      2.000000
  0.027186  0.078229 -0.000392      2.000000
  0.054309  0.093849 -0.000824      2.000000
 -0.054183  0.031368  0.000905      2.000000
 -0.027060  0.046988  0.000473      2.000000
  0.000376 -0.000132  0.028464      1.000000
  0.027499  0.015488  0.028032      2.000000
  0.054622  0.031109  0.027600      2.000000
  0.000407  0.031172  0.028485      2.000000
  0.027531  0.046792  0.028052      2.000000
  0.054654  0.062413  0.027620      2.000000
 -0.053839 -0.000068  0.029349      2.000000
 -0.026716  0.015552  0.028917      2.000000
  0.000439  0.062476  0.028505      2.000000
  0.027562  0.078097  0.028072      2.000000
  0.054685  0.093717  0.027640      2.000000
 -0.053807  0.031236  0.029369      2.000000
 -0.026684  0.046856  0.028937      2.000000
 


--------------------------------------------------------------------------------------------------------




 Dimension of arrays:
   k-points           NKPTS =     26   k-points in BZ     NKDIM =     26   number of bands    NBANDS=    272
   number of dos      NEDOS =    301   number of ions     NIONS =     55
   non local maximal  LDIM  =      6   non local SUM 2l+1 LMDIM =     18
   total plane-waves  NPLWV = 439040
   max r-space proj   IRMAX =   8809   max aug-charges    IRDMAX=  25500
   dimension x,y,z NGX =    56 NGY =   56 NGZ =  140
   dimension x,y,z NGXF=   112 NGYF=  112 NGZF=  280
   support grid    NGXF=   112 NGYF=  112 NGZF=  280
   ions per type =               1  12  42
   NGX,Y,Z   is equivalent  to a cutoff of  12.62, 12.62, 13.25 a.u.
   NGXF,Y,Z  is equivalent  to a cutoff of  25.24, 25.24, 26.50 a.u.

 SYSTEM =  unknown system                          
 POSCAR =  V12 F42                                 

 Startparameter for this run:
   NWRITE =      1    write-flag & timer
   PREC   = accura    normal or accurate (medium, high low for compatibility)
   ISTART =      0    job   : 0-new  1-cont  2-samecut
   ICHARG =      1    charge: 1-file 2-atom 10-const
   ISPIN  =      2    spin polarized calculation?
   LNONCOLLINEAR =      F non collinear calculations
   LSORBIT =      F    spin-orbit coupling
   INIWAV =      1    electr: 0-lowe 1-rand  2-diag
   LASPH  =      F    aspherical Exc in radial PAW
 Electronic Relaxation 1
   ENCUT  =  520.0 eV  38.22 Ry    6.18 a.u.  13.72 13.72 32.66*2*pi/ulx,y,z
   ENINI  =  520.0     initial cutoff
   ENAUG  =  613.6 eV  augmentation charge cutoff
   NELM   =    200;   NELMIN=  6; NELMDL= -5     # of ELM steps 
   EDIFF  = 0.1E-04   stopping-criterion for ELM
   LREAL  =      T    real-space projection
   NLSPLINE    = F    spline interpolate recip. space projectors
   LCOMPAT=      F    compatible to vasp.4.4
   GGA_COMPAT  = T    GGA compatible to vasp.4.4-vasp.4.6
   LMAXPAW     = -100 max onsite density
   LMAXMIX     =    2 max onsite mixed and CHGCAR
   VOSKOWN=      0    Vosko Wilk Nusair interpolation
   ROPT   =   -0.00025  -0.00025  -0.00025
 Ionic relaxation
   EDIFFG = -.3E-01   stopping-criterion for IOM
   NSW    =     99    number of steps for IOM
   NBLOCK =      1;   KBLOCK =     99    inner block; outer block 
   IBRION =      2    ionic relax: 0-MD 1-quasi-New 2-CG
   NFREE  =      1    steps in history (QN), initial steepest desc. (CG)
   ISIF   =      3    stress and relaxation
   IWAVPR =     11    prediction:  0-non 1-charg 2-wave 3-comb
   ISYM   =      0    0-nonsym 1-usesym 2-fastsym
   LCORR  =      T    Harris-Foulkes like correction to forces

   POTIM  = 0.5000    time-step for ionic-motion
   TEIN   =    0.0    initial temperature
   TEBEG  =    0.0;   TEEND  =   0.0 temperature during run
   SMASS  =  -3.00    Nose mass-parameter (am)
   estimated Nose-frequenzy (Omega)   =  0.10E-29 period in steps = 0.13E+47 mass=  -0.124E-26a.u.
   SCALEE = 1.0000    scale energy and forces
   NPACO  =    256;   APACO  = 10.0  distance and # of slots for P.C.
   PSTRESS=    0.0 pullay stress

  Mass of Ions in am
   POMASS =  40.08 50.94 19.00
  Ionic Valenz
   ZVAL   =  10.00 11.00  7.00
  Atomic Wigner-Seitz radii
   RWIGS  =  -1.00 -1.00 -1.00
  virtual crystal weights 
   VCA    =   1.00  1.00  1.00
   NELECT =     436.0000    total number of electrons
   NUPDOWN=      -1.0000    fix difference up-down

 DOS related values:
   EMIN   =  10.00;   EMAX   =-10.00  energy-range for DOS
   EFERMI =   0.00
   ISMEAR =     0;   SIGMA  =   0.05  broadening in eV -4-tet -1-fermi 0-gaus

 Electronic relaxation 2 (details)
   IALGO  =     38    algorithm
   LDIAG  =      T    sub-space diagonalisation (order eigenvalues)
   LSUBROT=      F    optimize rotation matrix (better conditioning)
   TURBO    =      0    0=normal 1=particle mesh
   IRESTART =      0    0=no restart 2=restart with 2 vectors
   NREBOOT  =      0    no. of reboots
   NMIN     =      0    reboot dimension
   EREF     =   0.00    reference energy to select bands
   IMIX   =      4    mixing-type and parameters
     AMIX     =   0.40;   BMIX     =  1.00
     AMIX_MAG =   1.60;   BMIX_MAG =  1.00
     AMIN     =   0.10
     WC   =   100.;   INIMIX=   1;  MIXPRE=   1;  MAXMIX= -45

 Intra band minimization:
   WEIMIN = 0.0010     energy-eigenvalue tresh-hold
   EBREAK =  0.92E-08  absolut break condition
   DEPER  =   0.30     relativ break condition  

   TIME   =   0.40     timestep for ELM

  volume/ion in A,a.u.               =      15.05       101.57
  Fermi-wavevector in a.u.,A,eV,Ry     =   1.322076  2.498361 23.781419  1.747885
  Thomas-Fermi vector in A             =   2.451783
 
 Write flags
   LWAVE        =      F    write WAVECAR
   LDOWNSAMPLE  =      F    k-point downsampling of WAVECAR
   LCHARG       =      T    write CHGCAR
   LVTOT        =      F    write LOCPOT, total local potential
   LVHAR        =      F    write LOCPOT, Hartree potential only
   LELF         =      F    write electronic localiz. function (ELF)
   LORBIT       =     11    0 simple, 1 ext, 2 COOP (PROOUT), +10 PAW based schemes


 Dipole corrections
   LMONO  =      F    monopole corrections only (constant potential shift)
   LDIPOL =      F    correct potential (dipole corrections)
   IDIPOL =      0    1-x, 2-y, 3-z, 4-all directions 
   EPSILON=  1.0000000 bulk dielectric constant

 Exchange correlation treatment:
   GGA     =    --    GGA type
   LEXCH   =     8    internal setting for exchange type
   LIBXC   =     F    Libxc                    
   VOSKOWN =     0    Vosko Wilk Nusair interpolation
   LHFCALC =     F    Hartree Fock is set to
   LHFONE  =     F    Hartree Fock one center treatment
   AEXX    =    0.0000 exact exchange contribution

 Linear response parameters
   LEPSILON=     F    determine dielectric tensor
   LRPA    =     F    only Hartree local field effects (RPA)
   LNABLA  =     F    use nabla operator in PAW spheres
   LVEL    =     F    velocity operator in full k-point grid
   CSHIFT  =0.1000    complex shift for real part using Kramers Kronig
   OMEGAMAX=  -1.0    maximum frequency
   DEG_THRESHOLD= 0.2000000E-02 threshold for treating states as degnerate
   RTIME   =   -0.100 relaxation time in fs
  (WPLASMAI=    0.000 imaginary part of plasma frequency in eV, 0.658/RTIME)
   DFIELD  = 0.0000000 0.0000000 0.0000000 field for delta impulse in time
 
  Optional k-point grid parameters
   LKPOINTS_OPT  =     F    use optional k-point grid
   KPOINTS_OPT_MODE=     1    mode for optional k-point grid
 
 Orbital magnetization related:
   ORBITALMAG=     F  switch on orbital magnetization
   LCHIMAG   =     F  perturbation theory with respect to B field
   DQ        =  0.001000  dq finite difference perturbation B field
   LLRAUG    =     F  two centre corrections for induced B field



--------------------------------------------------------------------------------------------------------


 conjugate gradient relaxation of ions
 charge density and potential will be updated during run
 spin polarized calculation
 Variant of blocked Davidson
 Davidson routine will perform the subspace rotation
 perform sub-space diagonalisation
    after iterative eigenvector-optimisation
 modified Broyden-mixing scheme, WC =      100.0
 initial mixing is a Kerker type mixing with AMIX =  0.4000 and BMIX =      1.0000
 Hartree-type preconditioning will be used
 using additional bands           54
 real space projection scheme for non local part
 use partial core corrections
 calculate Harris-corrections to forces 
   (improved forces if not selfconsistent)
 use gradient corrections 
 use of overlap-Matrix (Vanderbilt PP)
 Gauss-broadening in eV      SIGMA  =   0.05


--------------------------------------------------------------------------------------------------------


  energy-cutoff  :      520.00
  volume of cell :      827.83
      direct lattice vectors                 reciprocal lattice vectors
     7.376459915 -0.007374283 -0.097411689     0.135615919  0.078101327 -0.002161463
    -3.680253419  6.392593383  0.078224744     0.000157805  0.156520652  0.000100719
     0.286578381 -0.011589756 17.561911972     0.000751526 -0.000263969  0.056928971

  length of vectors
     7.377106770  7.376695365 17.564253859     0.156512513  0.156520764  0.056934543


 
 k-points in units of 2pi/SCALE and weight: Fully automatic kpoint scheme           
   0.00000000  0.00000000  0.00000000       0.020
   0.02712318  0.01562027 -0.00043229       0.040
   0.05424637  0.03124053 -0.00086459       0.040
   0.00003156  0.03130413  0.00002014       0.040
   0.02715474  0.04692440 -0.00041215       0.040
   0.05427793  0.06254466 -0.00084444       0.040
  -0.05421481  0.00006360  0.00088473       0.040
  -0.02709162  0.01568386  0.00045244       0.040
   0.00006312  0.06260826  0.00004029       0.040
   0.02718631  0.07822853 -0.00039201       0.040
   0.05430949  0.09384879 -0.00082430       0.040
  -0.05418325  0.03136773  0.00090487       0.040
  -0.02706006  0.04698800  0.00047258       0.040
   0.00037576 -0.00013198  0.02846449       0.020
   0.02749895  0.01548828  0.02803219       0.040
   0.05462213  0.03110855  0.02759990       0.040
   0.00040732  0.03117215  0.02848463       0.040
   0.02753051  0.04679241  0.02805234       0.040
   0.05465369  0.06241268  0.02762004       0.040
  -0.05383904 -0.00006839  0.02934921       0.040
  -0.02671586  0.01555188  0.02891692       0.040
   0.00043888  0.06247628  0.02850477       0.040
   0.02756207  0.07809654  0.02807248       0.040
   0.05468525  0.09371681  0.02764019       0.040
  -0.05380748  0.03123575  0.02936936       0.040
  -0.02668430  0.04685601  0.02893707       0.040
 
 k-points in reciprocal lattice and weights: Fully automatic kpoint scheme           
   0.00000000  0.00000000  0.00000000       0.020
   0.20000000  0.00000000 -0.00000000       0.040
   0.40000000  0.00000000 -0.00000000       0.040
  -0.00000000  0.20000000 -0.00000000       0.040
   0.20000000  0.20000000  0.00000000       0.040
   0.40000000  0.20000000 -0.00000000       0.040
  -0.40000000  0.20000000  0.00000000       0.040
  -0.20000000  0.20000000  0.00000000       0.040
   0.00000000  0.40000000 -0.00000000       0.040
   0.20000000  0.40000000 -0.00000000       0.040
   0.40000000  0.40000000 -0.00000000       0.040
  -0.40000000  0.40000000  0.00000000       0.040
  -0.20000000  0.40000000  0.00000000       0.040
  -0.00000000  0.00000000  0.50000000       0.020
   0.20000000  0.00000000  0.50000000       0.040
   0.40000000  0.00000000  0.50000000       0.040
  -0.00000000  0.20000000  0.50000000       0.040
   0.20000000  0.20000000  0.50000000       0.040
   0.40000000  0.20000000  0.50000000       0.040
  -0.40000000  0.20000000  0.50000000       0.040
  -0.20000000  0.20000000  0.50000000       0.040
  -0.00000000  0.40000000  0.50000000       0.040
   0.20000000  0.40000000  0.50000000       0.040
   0.40000000  0.40000000  0.50000000       0.040
  -0.40000000  0.40000000  0.50000000       0.040
  -0.20000000  0.40000000  0.50000000       0.040
 
 position of ions in fractional coordinates (direct lattice) 
   0.84397016  0.50095598  0.32439052
   0.29517423  0.00129552  0.33423033
   0.71735675  0.71828651  0.99795128
   0.00391733  0.28463335  0.66868181
   0.35384093  0.00026200  0.83371527
   0.64643278  0.65130244  0.50698174
   0.99632245  0.34480588  0.16114820
   0.65087685  0.15029671  0.50110419
   0.49129926  0.34711896  0.16123447
   0.85426194  0.50058988  0.83254693
   0.35407339  0.49995126  0.83471636
   0.14959451  0.65152603  0.50503766
   0.49783096  0.84846224  0.16532653
   0.58155141  0.82264069  0.06528677
   0.25458057  0.42642508  0.72987226
   0.17061541  0.73825847  0.39681061
   0.44991389  0.26280679  0.27096110
   0.82902154  0.57686920  0.93649116
   0.75690164  0.17130897  0.60245315
   0.88056481  0.07379293  0.73139939
   0.19285124  0.11943864  0.39471433
   0.92654290  0.80244588  0.06202432
   0.12993497  0.20481098  0.60216452
   0.05061134  0.84067068  0.27767498
   0.80362522  0.92730685  0.93337259
   0.10464829  0.54231058  0.60638352
   0.43026449  0.88597170  0.26831959
   0.45357100  0.56743563  0.93925960
   0.88301854  0.43056830  0.72925580
   0.57075561  0.14042778  0.39058442
   0.56617143  0.45027685  0.05986534
   0.35375568  0.56581168  0.48566913
   0.20767446  0.63421531  0.14537348
   0.43614063  0.79128087  0.81480654
   0.64474652  0.21067104  0.85376699
   0.57161540  0.36038479  0.52199240
   0.78742294  0.43857024  0.18797121
   0.68221243  0.60950576  0.40228247
   0.91923115  0.31000307  0.06512330
   0.39111091  0.07025497  0.73645197
   0.31556377  0.92960297  0.93088181
   0.61494059  0.68944119  0.60383534
   0.04711431  0.39042804  0.26747297
   0.94152007  0.73483867  0.52047579
   0.78891716  0.06099487  0.18805377
   0.26960332  0.20740837  0.85350231
   0.06292586  0.79158233  0.81257472
   0.72539317  0.93727764  0.47843311
   0.19998713  0.25654224  0.15031337
   0.62727230  0.54994015  0.80536341
   0.92011801  0.38130970  0.46056690
   0.44140276  0.07073283  0.13325390
   0.37396478  0.93368348  0.53079404
   0.55039258  0.62295205  0.19870661
   0.07955505  0.45061113  0.86193889
 
 position of ions in cartesian coordinates  (Angst):
   4.47483042  3.19242458  5.65389243
   2.26835623  0.00223138  5.84107152
   2.93406817  4.57485756 17.51224141
  -0.82699711  1.81176654 11.76521493
   2.84805402 -0.01059705 14.60718636
   2.51671746  4.15286887  8.89154658
   6.12654116  2.19498894  2.75998934
   4.39164261  0.95017836  8.74870155
   2.39276986  2.21349870  2.81088049
   4.69772128  3.18411896 14.57705937
   1.01107252  3.18369990 14.66383297
  -1.14957008  4.15798456  8.90582017
   0.59705306  5.41828687  2.92132623
   1.28097420  5.25376228  1.15426141
   0.51771663  2.71562573 12.82651018
  -1.34472318  4.71352910  7.00988317
   2.42922782  1.67355876  4.73532608
   4.26059745  3.67072310 16.41094436
   5.12544420  1.08254470 10.51989869
   6.43347761  0.45675792 12.76476687
   1.09611155  0.75752586  6.92249538
   3.89917720  5.12215877  1.06178074
   0.37727114  1.30133623 10.57852433
  -2.64097296  5.37047440  4.93733464
   2.78266944  5.91115190 16.38606310
  -1.05013007  3.45897151 10.68148208
  -0.00987703  5.65737415  4.73959721
   1.52661285  3.61315469 16.49539879
   5.13793933  2.73748454 12.75479090
   3.80527907  0.88896202  6.81479587
   2.53636406  2.87356786  1.03142090
   0.66631650  3.60876653  8.53907905
  -0.76050985  4.05106430  2.58241761
   0.53856567  5.04567721 14.32897331
   4.22529523  1.33208478 14.94745459
   3.03978245  2.29352839  9.13969361
   4.24821260  2.79561601  3.25873669
   2.90446240  3.88662933  7.04607233
   5.65844483  1.97419015  1.07839571
   2.83750910  0.43769200 12.90090165
  -0.82666041  5.92945806 16.39004274
   2.17181246  4.39578413 10.59853207
  -1.01268535  2.49240033  4.72328845
   4.38984966  4.68454961  9.10631746
   5.64883138  0.38191822  3.23050534
   1.46999799  1.31399738 14.97909447
  -2.21618716  5.05038241 14.32615725
   2.03852298  5.98074069  8.40485667
   0.57413317  1.63675337  2.64037697
   2.83392961  3.50158412 14.12563664
   5.51588583  2.42543481  8.02863288
   3.03386268  0.44736683  2.30272857
  -0.52554149  5.95974936  9.35836690
   1.82427236  3.97591747  3.48478351
  -0.82451545  2.86999742 15.16479422
 


--------------------------------------------------------------------------------------------------------


 k-point   1 :   0.0000 0.0000 0.0000  plane waves:   22339
 k-point   2 :   0.2000 0.0000-0.0000  plane waves:   22283
 k-point   3 :   0.4000 0.0000-0.0000  plane waves:   22284
 k-point   4 :  -0.0000 0.2000-0.0000  plane waves:   22290
 k-point   5 :   0.2000 0.2000 0.0000  plane waves:   22287
 k-point   6 :   0.4000 0.2000-0.0000  plane waves:   22305
 k-point   7 :  -0.4000 0.2000 0.0000  plane waves:   22297
 k-point   8 :  -0.2000 0.2000 0.0000  plane waves:   22288
 k-point   9 :   0.0000 0.4000-0.0000  plane waves:   22285
 k-point  10 :   0.2000 0.4000-0.0000  plane waves:   22301
 k-point  11 :   0.4000 0.4000-0.0000  plane waves:   22290
 k-point  12 :  -0.4000 0.4000 0.0000  plane waves:   22286
 k-point  13 :  -0.2000 0.4000 0.0000  plane waves:   22294
 k-point  14 :  -0.0000 0.0000 0.5000  plane waves:   22304
 k-point  15 :   0.2000 0.0000 0.5000  plane waves:   22300
 k-point  16 :   0.4000 0.0000 0.5000  plane waves:   22291
 k-point  17 :  -0.0000 0.2000 0.5000  plane waves:   22296
 k-point  18 :   0.2000 0.2000 0.5000  plane waves:   22305
 k-point  19 :   0.4000 0.2000 0.5000  plane waves:   22280
 k-point  20 :  -0.4000 0.2000 0.5000  plane waves:   22296
 k-point  21 :  -0.2000 0.2000 0.5000  plane waves:   22301
 k-point  22 :  -0.0000 0.4000 0.5000  plane waves:   22293
 k-point  23 :   0.2000 0.4000 0.5000  plane waves:   22277
 k-point  24 :   0.4000 0.4000 0.5000  plane waves:   22274
 k-point  25 :  -0.4000 0.4000 0.5000  plane waves:   22294
 k-point  26 :  -0.2000 0.4000 0.5000  plane waves:   22291

 maximum and minimum number of plane-waves per node :      1423     1368

 maximum number of plane-waves:     22339
 maximum index in each direction: 
   IXMAX=   14   IYMAX=   13   IZMAX=   32
   IXMIN=  -14   IYMIN=  -14   IZMIN=  -33


 real space projection operators:
  total allocation   :      20774.23 KBytes
  max/ min on nodes  :       1496.23       1118.72


 parallel 3D FFT for wavefunctions:
    minimum data exchange during FFTs selected (reduces bandwidth)
 parallel 3D FFT for charge:
    minimum data exchange during FFTs selected (reduces bandwidth)


 total amount of memory used by VASP MPI-rank0    88438. kBytes
=======================================================================

   base      :      30000. kBytes
   nonlr-proj:      10053. kBytes
   fftplans  :       2009. kBytes
   grid      :       5291. kBytes
   one-center:        124. kBytes
   wavefun   :      40961. kBytes
 
     INWAV:  cpu time      0.0000: real time      0.0000
 Broyden mixing: mesh for mixing (old mesh)
   NGX = 27   NGY = 27   NGZ = 65
  (NGX  =112   NGY  =112   NGZ  =280)
  gives a total of  47385 points

 initial charge density was supplied:
 number of electron     436.0000015 magnetization       1.1572595
 keeping initial charge density in first step


--------------------------------------------------------------------------------------------------------


 Maximum index for non-local projection operator          741
 Maximum index for augmentation-charges          663 (set IRDMAX)


--------------------------------------------------------------------------------------------------------


 First call to EWALD:  gamma=   0.189
 Maximum number of real-space cells 4x 4x 2
 Maximum number of reciprocal cells 2x 2x 5

    FEWALD:  cpu time      0.0028: real time      0.0029


--------------------------------------- Iteration      1(   1)  ---------------------------------------


    POTLOK:  cpu time      0.0411: real time      0.0429
    SETDIJ:  cpu time      0.0092: real time      0.0100
     EDDAV:  cpu time     18.6407: real time     18.7639
       DOS:  cpu time      0.0047: real time      0.0061
    --------------------------------------------
      LOOP:  cpu time     18.6958: real time     18.8229

 eigenvalue-minimisations  : 29936
 total energy-change (2. order) : 0.5263399E+04  (-0.2450586E+05)
 number of electron     436.0000015 magnetization       1.1572595
 augmentation part      436.0000015 magnetization       1.1572595

 Free energy of the ion-electron system (eV)
  ---------------------------------------------------
  alpha Z        PSCENC =      1413.15811044
  Ewald energy   TEWEN  =    -22476.89191831
  -Hartree energ DENC   =    -19378.81121487
  -exchange      EXHF   =         0.00000000
  -V(xc)+E(xc)   XCENC  =      1953.30196721
  PAW double counting   =     45463.75375184   -45454.06889304
  entropy T*S    EENTRO =        -0.02222074
  eigenvalues    EBANDS =      -826.32958792
  atomic energy  EATOM  =     44569.30852035
  Solvation  Ediel_sol  =         0.00000000
  ---------------------------------------------------
  free energy    TOTEN  =      5263.39851498 eV

  energy without entropy =     5263.42073572  energy(sigma->0) =     5263.40962535


--------------------------------------------------------------------------------------------------------




--------------------------------------- Iteration      1(   2)  ---------------------------------------


     EDDAV:  cpu time     18.9906: real time     19.1819
       DOS:  cpu time      0.0046: real time      0.0056
    --------------------------------------------
      LOOP:  cpu time     18.9951: real time     19.1875

 eigenvalue-minimisations  : 30944
 total energy-change (2. order) :-0.4969727E+04  (-0.4663964E+04)
 number of electron     436.0000015 magnetization       1.1572595
 augmentation part      436.0000015 magnetization       1.1572595

 Free energy of the ion-electron system (eV)
  ---------------------------------------------------
  alpha Z        PSCENC =      1413.15811044
  Ewald energy   TEWEN  =    -22476.89191831
  -Hartree energ DENC   =    -19378.81121487
  -exchange      EXHF   =         0.00000000
  -V(xc)+E(xc)   XCENC  =      1953.30196721
  PAW double counting   =     45463.75375184   -45454.06889304
  entropy T*S    EENTRO =        -0.02929567
  eigenvalues    EBANDS =     -5796.04932154
  atomic energy  EATOM  =     44569.30852035
  Solvation  Ediel_sol  =         0.00000000
  ---------------------------------------------------
  free energy    TOTEN  =       293.67170643 eV

  energy without entropy =      293.70100209  energy(sigma->0) =      293.68635426


--------------------------------------------------------------------------------------------------------




--------------------------------------- Iteration      1(   3)  ---------------------------------------


     EDDAV:  cpu time     19.7999: real time     19.9499
       DOS:  cpu time      0.0048: real time      0.0131
    --------------------------------------------
      LOOP:  cpu time     19.8047: real time     19.9630

 eigenvalue-minimisations  : 32376
 total energy-change (2. order) :-0.6103970E+03  (-0.5717529E+03)
 number of electron     436.0000015 magnetization       1.1572595
 augmentation part      436.0000015 magnetization       1.1572595

 Free energy of the ion-electron system (eV)
  ---------------------------------------------------
  alpha Z        PSCENC =      1413.15811044
  Ewald energy   TEWEN  =    -22476.89191831
  -Hartree energ DENC   =    -19378.81121487
  -exchange      EXHF   =         0.00000000
  -V(xc)+E(xc)   XCENC  =      1953.30196721
  PAW double counting   =     45463.75375184   -45454.06889304
  entropy T*S    EENTRO =        -0.04438306
  eigenvalues    EBANDS =     -6406.43123021
  atomic energy  EATOM  =     44569.30852035
  Solvation  Ediel_sol  =         0.00000000
  ---------------------------------------------------
  free energy    TOTEN  =      -316.72528964 eV

  energy without entropy =     -316.68090658  energy(sigma->0) =     -316.70309811


--------------------------------------------------------------------------------------------------------




--------------------------------------- Iteration      1(   4)  ---------------------------------------


     EDDAV:  cpu time     20.6322: real time     20.7868
       DOS:  cpu time      0.0048: real time      0.0142
    --------------------------------------------
      LOOP:  cpu time     20.6371: real time     20.8011

 eigenvalue-minimisations  : 34144
 total energy-change (2. order) :-0.2544214E+02  (-0.2488835E+02)
 number of electron     436.0000015 magnetization       1.1572595
 augmentation part      436.0000015 magnetization       1.1572595

 Free energy of the ion-electron system (eV)
  ---------------------------------------------------
  alpha Z        PSCENC =      1413.15811044
  Ewald energy   TEWEN  =    -22476.89191831
  -Hartree energ DENC   =    -19378.81121487
  -exchange      EXHF   =         0.00000000
  -V(xc)+E(xc)   XCENC  =      1953.30196721
  PAW double counting   =     45463.75375184   -45454.06889304
  entropy T*S    EENTRO =        -0.05389366
  eigenvalues    EBANDS =     -6431.86385540
  atomic energy  EATOM  =     44569.30852035
  Solvation  Ediel_sol  =         0.00000000
  ---------------------------------------------------
  free energy    TOTEN  =      -342.16742542 eV

  energy without entropy =     -342.11353176  energy(sigma->0) =     -342.14047859


--------------------------------------------------------------------------------------------------------




--------------------------------------- Iteration      1(   5)  ---------------------------------------


     EDDAV:  cpu time     24.4393: real time     24.6569
       DOS:  cpu time      0.0050: real time      0.0769
    CHARGE:  cpu time      0.4862: real time      0.4892
    MIXING:  cpu time      0.0011: real time      0.0011
    --------------------------------------------
      LOOP:  cpu time     24.9316: real time     25.2241

 eigenvalue-minimisations  : 42672
 total energy-change (2. order) :-0.8992485E+00  (-0.8956334E+00)
 number of electron     436.0000015 magnetization       1.1471971
 augmentation part      112.2707938 magnetization       0.7571320

 Broyden mixing:
  rms(total) = 0.68182E-01    rms(broyden)= 0.68100E-01
  rms(prec ) = 0.70237E-01
  weight for this iteration     100.00

 Free energy of the ion-electron system (eV)
  ---------------------------------------------------
  alpha Z        PSCENC =      1413.15811044
  Ewald energy   TEWEN  =    -22476.89191831
  -Hartree energ DENC   =    -19378.81121487
  -exchange      EXHF   =         0.00000000
  -V(xc)+E(xc)   XCENC  =      1953.30196721
  PAW double counting   =     45463.75375184   -45454.06889304
  entropy T*S    EENTRO =        -0.05523868
  eigenvalues    EBANDS =     -6432.76175883
  atomic energy  EATOM  =     44569.30852035
  Solvation  Ediel_sol  =         0.00000000
  ---------------------------------------------------
  free energy    TOTEN  =      -343.06667388 eV

  energy without entropy =     -343.01143519  energy(sigma->0) =     -343.03905454


--------------------------------------------------------------------------------------------------------




--------------------------------------- Iteration      1(   6)  ---------------------------------------


    POTLOK:  cpu time      0.0510: real time      0.0585
    SETDIJ:  cpu time      0.0083: real time      0.0083
     EDDAV:  cpu time     25.5282: real time     25.6942
       DOS:  cpu time      0.0047: real time      0.1327
    CHARGE:  cpu time      0.4880: real time      0.4902
    MIXING:  cpu time      0.0010: real time      0.0010
    --------------------------------------------
      LOOP:  cpu time     26.0812: real time     26.3848

 eigenvalue-minimisations  : 44584
 total energy-change (2. order) :-0.1984834E+00  (-0.3812170E-01)
 number of electron     436.0000015 magnetization       1.1525474
 augmentation part      112.2704815 magnetization       0.4800881

 Broyden mixing:
  rms(total) = 0.70642E+00    rms(broyden)= 0.70536E+00
  rms(prec ) = 0.79197E+00
  weight for this iteration     100.00

 eigenvalues of (default mixing * dielectric matrix)
  average eigenvalue GAMMA=   0.0566
  0.0566

 Free energy of the ion-electron system (eV)
  ---------------------------------------------------
  alpha Z        PSCENC =      1413.15811044
  Ewald energy   TEWEN  =    -22476.89191831
  -Hartree energ DENC   =    -19378.16085322
  -exchange      EXHF   =         0.00000000
  -V(xc)+E(xc)   XCENC  =      1953.25524809
  PAW double counting   =     45471.84824861   -45462.37001221
  entropy T*S    EENTRO =        -0.05192708
  eigenvalues    EBANDS =     -6433.36057399
  atomic energy  EATOM  =     44569.30852035
  Solvation  Ediel_sol  =         0.00000000
  ---------------------------------------------------
  free energy    TOTEN  =      -343.26515731 eV

  energy without entropy =     -343.21323023  energy(sigma->0) =     -343.23919377


--------------------------------------------------------------------------------------------------------




--------------------------------------- Iteration      1(   7)  ---------------------------------------


    POTLOK:  cpu time      0.0473: real time      0.0548
    SETDIJ:  cpu time      0.0082: real time      0.0082
     EDDAV:  cpu time     23.4853: real time     23.6385
       DOS:  cpu time      0.0048: real time      0.0382
    CHARGE:  cpu time      0.5324: real time      0.5345
    MIXING:  cpu time      0.0010: real time      0.0010
    --------------------------------------------
      LOOP:  cpu time     24.0790: real time     24.2753

 eigenvalue-minimisations  : 40144
 total energy-change (2. order) : 0.3965898E-01  (-0.2712561E-01)
 number of electron     436.0000015 magnetization       1.1560491
 augmentation part      112.2609628 magnetization       0.7200550

 Broyden mixing:
  rms(total) = 0.36656E+00    rms(broyden)= 0.36408E+00
  rms(prec ) = 0.40899E+00
  weight for this iteration     100.00

 eigenvalues of (default mixing * dielectric matrix)
  average eigenvalue GAMMA=   0.0955
  0.1596  0.0315

 Free energy of the ion-electron system (eV)
  ---------------------------------------------------
  alpha Z        PSCENC =      1413.15811044
  Ewald energy   TEWEN  =    -22476.89191831
  -Hartree energ DENC   =    -19378.14686990
  -exchange      EXHF   =         0.00000000
  -V(xc)+E(xc)   XCENC  =      1953.26245452
  PAW double counting   =     45471.69347275   -45462.21026195
  entropy T*S    EENTRO =        -0.04882846
  eigenvalues    EBANDS =     -6433.35017777
  atomic energy  EATOM  =     44569.30852035
  Solvation  Ediel_sol  =         0.00000000
  ---------------------------------------------------
  free energy    TOTEN  =      -343.22549834 eV

  energy without entropy =     -343.17666987  energy(sigma->0) =     -343.20108410


--------------------------------------------------------------------------------------------------------




--------------------------------------- Iteration      1(   8)  ---------------------------------------


    POTLOK:  cpu time      0.0504: real time      0.0592
    SETDIJ:  cpu time      0.0082: real time      0.0082
     EDDAV:  cpu time     20.7478: real time     20.8925
       DOS:  cpu time      0.0048: real time      0.0856
    CHARGE:  cpu time      0.4861: real time      0.4883
    MIXING:  cpu time      0.0010: real time      0.0010
    --------------------------------------------
      LOOP:  cpu time     21.2983: real time     21.5349

 eigenvalue-minimisations  : 34480
 total energy-change (2. order) :-0.1147362E-01  (-0.4396231E-02)
 number of electron     436.0000015 magnetization       1.1539605
 augmentation part      112.2606244 magnetization       0.8994114

 Broyden mixing:
  rms(total) = 0.29320E+00    rms(broyden)= 0.29250E+00
  rms(prec ) = 0.32359E+00
  weight for this iteration     100.00

 eigenvalues of (default mixing * dielectric matrix)
  average eigenvalue GAMMA=   0.1239
  0.2964  0.0377  0.0377

 Free energy of the ion-electron system (eV)
  ---------------------------------------------------
  alpha Z        PSCENC =      1413.15811044
  Ewald energy   TEWEN  =    -22476.89191831
  -Hartree energ DENC   =    -19378.22102601
  -exchange      EXHF   =         0.00000000
  -V(xc)+E(xc)   XCENC  =      1953.25980722
  PAW double counting   =     45471.49678147   -45462.00267995
  entropy T*S    EENTRO =        -0.05654096
  eigenvalues    EBANDS =     -6433.28802622
  atomic energy  EATOM  =     44569.30852035
  Solvation  Ediel_sol  =         0.00000000
  ---------------------------------------------------
  free energy    TOTEN  =      -343.23697195 eV

  energy without entropy =     -343.18043100  energy(sigma->0) =     -343.20870147


--------------------------------------------------------------------------------------------------------




--------------------------------------- Iteration      1(   9)  ---------------------------------------


    POTLOK:  cpu time      0.0493: real time      0.0589
    SETDIJ:  cpu time      0.0081: real time      0.0082
     EDDAV:  cpu time     19.9276: real time     20.0619
       DOS:  cpu time      0.0048: real time      0.0061
    CHARGE:  cpu time      0.5160: real time      0.5185
    MIXING:  cpu time      0.0010: real time      0.0010
    --------------------------------------------
      LOOP:  cpu time     20.5068: real time     20.6546

 eigenvalue-minimisations  : 33008
 total energy-change (2. order) : 0.4102206E-02  (-0.1050224E-02)
 number of electron     436.0000015 magnetization       1.1536475
 augmentation part      112.2589168 magnetization       0.7952308

 Broyden mixing:
  rms(total) = 0.17447E+00    rms(broyden)= 0.17425E+00
  rms(prec ) = 0.19270E+00
  weight for this iteration     100.00

 eigenvalues of (default mixing * dielectric matrix)
  average eigenvalue GAMMA=   0.1013
  0.2773  0.0492  0.0492  0.0294

 Free energy of the ion-electron system (eV)
  ---------------------------------------------------
  alpha Z        PSCENC =      1413.15811044
  Ewald energy   TEWEN  =    -22476.89191831
  -Hartree energ DENC   =    -19378.27706424
  -exchange      EXHF   =         0.00000000
  -V(xc)+E(xc)   XCENC  =      1953.26359212
  PAW double counting   =     45471.21085975   -45461.69983929
  entropy T*S    EENTRO =        -0.05464882
  eigenvalues    EBANDS =     -6433.25048175
  atomic energy  EATOM  =     44569.30852035
  Solvation  Ediel_sol  =         0.00000000
  ---------------------------------------------------
  free energy    TOTEN  =      -343.23286975 eV

  energy without entropy =     -343.17822092  energy(sigma->0) =     -343.20554534


--------------------------------------------------------------------------------------------------------




--------------------------------------- Iteration      1(  10)  ---------------------------------------


    POTLOK:  cpu time      0.0402: real time      0.0709
    SETDIJ:  cpu time      0.0083: real time      0.0083
     EDDAV:  cpu time     19.0475: real time     19.1851
       DOS:  cpu time      0.0052: real time      0.0056
    CHARGE:  cpu time      0.4867: real time      0.4891
    MIXING:  cpu time      0.0011: real time      0.0011
    --------------------------------------------
      LOOP:  cpu time     19.5890: real time     19.7602

 eigenvalue-minimisations  : 30752
 total energy-change (2. order) :-0.1269612E-02  (-0.7263190E-04)
 number of electron     436.0000015 magnetization       1.1532464
 augmentation part      112.2589391 magnetization       0.7821842

 Broyden mixing:
  rms(total) = 0.17000E+00    rms(broyden)= 0.16998E+00
  rms(prec ) = 0.18770E+00
  weight for this iteration     100.00

 eigenvalues of (default mixing * dielectric matrix)
  average eigenvalue GAMMA=   0.1099
  0.3089  0.0999  0.0317  0.0609  0.0483

 Free energy of the ion-electron system (eV)
  ---------------------------------------------------
  alpha Z        PSCENC =      1413.15811044
  Ewald energy   TEWEN  =    -22476.89191831
  -Hartree energ DENC   =    -19378.28154235
  -exchange      EXHF   =         0.00000000
  -V(xc)+E(xc)   XCENC  =      1953.26282082
  PAW double counting   =     45471.19641501   -45461.68386820
  entropy T*S    EENTRO =        -0.05462423
  eigenvalues    EBANDS =     -6433.24805289
  atomic energy  EATOM  =     44569.30852035
  Solvation  Ediel_sol  =         0.00000000
  ---------------------------------------------------
  free energy    TOTEN  =      -343.23413936 eV

  energy without entropy =     -343.17951512  energy(sigma->0) =     -343.20682724


--------------------------------------------------------------------------------------------------------




--------------------------------------- Iteration      1(  11)  ---------------------------------------


    POTLOK:  cpu time      0.0443: real time      0.0659
    SETDIJ:  cpu time      0.0082: real time      0.0082
     EDDAV:  cpu time     21.1356: real time     21.2903
       DOS:  cpu time      0.0048: real time      0.0765
    CHARGE:  cpu time      0.4857: real time      0.4882
    MIXING:  cpu time      0.0010: real time      0.0010
    --------------------------------------------
      LOOP:  cpu time     21.6796: real time     21.9301

 eigenvalue-minimisations  : 35096
 total energy-change (2. order) :-0.2308768E-03  (-0.5478616E-04)
 number of electron     436.0000015 magnetization       1.1542489
 augmentation part      112.2587721 magnetization       0.7544156

 Broyden mixing:
  rms(total) = 0.18451E+00    rms(broyden)= 0.18448E+00
  rms(prec ) = 0.20467E+00
  weight for this iteration     100.00

 eigenvalues of (default mixing * dielectric matrix)
  average eigenvalue GAMMA=   0.1519
  0.3387  0.3329  0.1171  0.0325  0.0498  0.0404

 Free energy of the ion-electron system (eV)
  ---------------------------------------------------
  alpha Z        PSCENC =      1413.15811044
  Ewald energy   TEWEN  =    -22476.89191831
  -Hartree energ DENC   =    -19378.26208268
  -exchange      EXHF   =         0.00000000
  -V(xc)+E(xc)   XCENC  =      1953.26204588
  PAW double counting   =     45471.21917945   -45461.70956011
  entropy T*S    EENTRO =        -0.05420624
  eigenvalues    EBANDS =     -6433.26445902
  atomic energy  EATOM  =     44569.30852035
  Solvation  Ediel_sol  =         0.00000000
  ---------------------------------------------------
  free energy    TOTEN  =      -343.23437024 eV

  energy without entropy =     -343.18016399  energy(sigma->0) =     -343.20726711


--------------------------------------------------------------------------------------------------------




--------------------------------------- Iteration      1(  12)  ---------------------------------------


    POTLOK:  cpu time      0.0390: real time      0.0533
    SETDIJ:  cpu time      0.0082: real time      0.0083
     EDDAV:  cpu time     21.7547: real time     21.9198
       DOS:  cpu time      0.0049: real time      0.1286
    CHARGE:  cpu time      0.4971: real time      0.4993
    MIXING:  cpu time      0.0012: real time      0.0012
    --------------------------------------------
      LOOP:  cpu time     22.3051: real time     22.6105

 eigenvalue-minimisations  : 36544
 total energy-change (2. order) : 0.2936460E-03  (-0.1233165E-03)
 number of electron     436.0000015 magnetization       1.1542066
 augmentation part      112.2594114 magnetization       0.7956017

 Broyden mixing:
  rms(total) = 0.18739E+00    rms(broyden)= 0.18733E+00
  rms(prec ) = 0.20609E+00
  weight for this iteration     100.00

 eigenvalues of (default mixing * dielectric matrix)
  average eigenvalue GAMMA=   0.1443
  0.3908  0.3182  0.1375  0.0541  0.0317  0.0390  0.0390

 Free energy of the ion-electron system (eV)
  ---------------------------------------------------
  alpha Z        PSCENC =      1413.15811044
  Ewald energy   TEWEN  =    -22476.89191831
  -Hartree energ DENC   =    -19378.23837733
  -exchange      EXHF   =         0.00000000
  -V(xc)+E(xc)   XCENC  =      1953.26110561
  PAW double counting   =     45471.21739131   -45461.71197468
  entropy T*S    EENTRO =        -0.05481918
  eigenvalues    EBANDS =     -6433.28211481
  atomic energy  EATOM  =     44569.30852035
  Solvation  Ediel_sol  =         0.00000000
  ---------------------------------------------------
  free energy    TOTEN  =      -343.23407659 eV

  energy without entropy =     -343.17925741  energy(sigma->0) =     -343.20666700


--------------------------------------------------------------------------------------------------------




--------------------------------------- Iteration      1(  13)  ---------------------------------------


    POTLOK:  cpu time      0.0505: real time      0.0569
    SETDIJ:  cpu time      0.0080: real time      0.0080
     EDDAV:  cpu time     17.8061: real time     17.9280
       DOS:  cpu time      0.0048: real time      0.0074
    CHARGE:  cpu time      0.4980: real time      0.5002
    MIXING:  cpu time      0.0012: real time      0.0012
    --------------------------------------------
      LOOP:  cpu time     18.3687: real time     18.5017

 eigenvalue-minimisations  : 28376
 total energy-change (2. order) : 0.3142652E-04  (-0.1748375E-04)
 number of electron     436.0000015 magnetization       1.1543722
 augmentation part      112.2593396 magnetization       0.7960476

 Broyden mixing:
  rms(total) = 0.18788E+00    rms(broyden)= 0.18788E+00
  rms(prec ) = 0.20681E+00
  weight for this iteration     100.00

 eigenvalues of (default mixing * dielectric matrix)
  average eigenvalue GAMMA=   0.1623
  0.3361  0.2931  0.2931  0.1751  0.0798  0.0322  0.0464  0.0423

 Free energy of the ion-electron system (eV)
  ---------------------------------------------------
  alpha Z        PSCENC =      1413.15811044
  Ewald energy   TEWEN  =    -22476.89191831
  -Hartree energ DENC   =    -19378.23820493
  -exchange      EXHF   =         0.00000000
  -V(xc)+E(xc)   XCENC  =      1953.26100443
  PAW double counting   =     45471.21326893   -45461.70770354
  entropy T*S    EENTRO =        -0.05480091
  eigenvalues    EBANDS =     -6433.28232163
  atomic energy  EATOM  =     44569.30852035
  Solvation  Ediel_sol  =         0.00000000
  ---------------------------------------------------
  free energy    TOTEN  =      -343.23404516 eV

  energy without entropy =     -343.17924426  energy(sigma->0) =     -343.20664471


--------------------------------------------------------------------------------------------------------




--------------------------------------- Iteration      1(  14)  ---------------------------------------


    POTLOK:  cpu time      0.0391: real time      0.0690
    SETDIJ:  cpu time      0.0082: real time      0.0082
     EDDAV:  cpu time     15.4765: real time     15.5827
       DOS:  cpu time      0.0056: real time      0.0056
    CHARGE:  cpu time      0.4980: real time      0.5001
    MIXING:  cpu time      0.0013: real time      0.0013
    --------------------------------------------
      LOOP:  cpu time     16.0287: real time     16.1670

 eigenvalue-minimisations  : 22664
 total energy-change (2. order) : 0.1232724E-03  (-0.9759423E-05)
 number of electron     436.0000015 magnetization       1.1546598
 augmentation part      112.2594082 magnetization       0.7958673

 Broyden mixing:
  rms(total) = 0.18806E+00    rms(broyden)= 0.18806E+00
  rms(prec ) = 0.20712E+00
  weight for this iteration     100.00

 eigenvalues of (default mixing * dielectric matrix)
  average eigenvalue GAMMA=   0.2276
  0.5474  0.3754  0.3754  0.3720  0.1715  0.0855  0.0323  0.0469  0.0420

 Free energy of the ion-electron system (eV)
  ---------------------------------------------------
  alpha Z        PSCENC =      1413.15811044
  Ewald energy   TEWEN  =    -22476.89191831
  -Hartree energ DENC   =    -19378.22682229
  -exchange      EXHF   =         0.00000000
  -V(xc)+E(xc)   XCENC  =      1953.26051031
  PAW double counting   =     45471.19780325   -45461.69488215
  entropy T*S    EENTRO =        -0.05474157
  eigenvalues    EBANDS =     -6433.29050192
  atomic energy  EATOM  =     44569.30852035
  Solvation  Ediel_sol  =         0.00000000
  ---------------------------------------------------
  free energy    TOTEN  =      -343.23392189 eV

  energy without entropy =     -343.17918032  energy(sigma->0) =     -343.20655110


--------------------------------------------------------------------------------------------------------




--------------------------------------- Iteration      1(  15)  ---------------------------------------


    POTLOK:  cpu time      0.0377: real time      0.0726
    SETDIJ:  cpu time      0.0081: real time      0.0081
     EDDAV:  cpu time     19.5050: real time     19.6200
       DOS:  cpu time      0.0049: real time      0.0055
    CHARGE:  cpu time      0.4891: real time      0.4910
    MIXING:  cpu time      0.0012: real time      0.0013
    --------------------------------------------
      LOOP:  cpu time     20.0461: real time     20.1985

 eigenvalue-minimisations  : 32032
 total energy-change (2. order) :-0.1417382E-03  (-0.5841984E-04)
 number of electron     436.0000015 magnetization       1.1527872
 augmentation part      112.2593117 magnetization       0.8076963

 Broyden mixing:
  rms(total) = 0.18743E+00    rms(broyden)= 0.18742E+00
  rms(prec ) = 0.20620E+00
  weight for this iteration     100.00

 eigenvalues of (default mixing * dielectric matrix)
  average eigenvalue GAMMA=   0.2875
  0.6775  0.6345  0.6345  0.4174  0.1907  0.1122  0.0866  0.0323  0.0469  0.0420

 Free energy of the ion-electron system (eV)
  ---------------------------------------------------
  alpha Z        PSCENC =      1413.15811044
  Ewald energy   TEWEN  =    -22476.89191831
  -Hartree energ DENC   =    -19378.24883370
  -exchange      EXHF   =         0.00000000
  -V(xc)+E(xc)   XCENC  =      1953.26167230
  PAW double counting   =     45471.28562705   -45461.77886055
  entropy T*S    EENTRO =        -0.05509165
  eigenvalues    EBANDS =     -6433.27328958
  atomic energy  EATOM  =     44569.30852035
  Solvation  Ediel_sol  =         0.00000000
  ---------------------------------------------------
  free energy    TOTEN  =      -343.23406363 eV

  energy without entropy =     -343.17897198  energy(sigma->0) =     -343.20651781


--------------------------------------------------------------------------------------------------------




--------------------------------------- Iteration      1(  16)  ---------------------------------------


    POTLOK:  cpu time      0.0401: real time      0.0755
    SETDIJ:  cpu time      0.0081: real time      0.0081
     EDDAV:  cpu time     22.2404: real time     22.3824
       DOS:  cpu time      0.0050: real time      0.0782
    CHARGE:  cpu time      0.4964: real time      0.4989
    MIXING:  cpu time      0.0015: real time      0.0015
    --------------------------------------------
      LOOP:  cpu time     22.7916: real time     23.0446

 eigenvalue-minimisations  : 37584
 total energy-change (2. order) :-0.9573900E-04  (-0.2440616E-03)
 number of electron     436.0000015 magnetization       1.1526369
 augmentation part      112.2596740 magnetization       0.7747759

 Broyden mixing:
  rms(total) = 0.19410E+00    rms(broyden)= 0.19406E+00
  rms(prec ) = 0.21532E+00
  weight for this iteration     100.00

 eigenvalues of (default mixing * dielectric matrix)
  average eigenvalue GAMMA=   0.3370
  0.9055  0.9055  0.7591  0.4446  0.2333  0.1528  0.0323  0.0420  0.0469  0.0863
  0.0987

 Free energy of the ion-electron system (eV)
  ---------------------------------------------------
  alpha Z        PSCENC =      1413.15811044
  Ewald energy   TEWEN  =    -22476.89191831
  -Hartree energ DENC   =    -19378.28086085
  -exchange      EXHF   =         0.00000000
  -V(xc)+E(xc)   XCENC  =      1953.26449724
  PAW double counting   =     45471.38899534   -45461.87310403
  entropy T*S    EENTRO =        -0.05440620
  eigenvalues    EBANDS =     -6433.25399334
  atomic energy  EATOM  =     44569.30852035
  Solvation  Ediel_sol  =         0.00000000
  ---------------------------------------------------
  free energy    TOTEN  =      -343.23415937 eV

  energy without entropy =     -343.17975317  energy(sigma->0) =     -343.20695627


--------------------------------------------------------------------------------------------------------




--------------------------------------- Iteration      1(  17)  ---------------------------------------


    POTLOK:  cpu time      0.0510: real time      0.0574
    SETDIJ:  cpu time      0.0082: real time      0.0082
     EDDAV:  cpu time     22.7044: real time     22.8822
       DOS:  cpu time      0.0065: real time      0.2294
    CHARGE:  cpu time      0.4985: real time      0.5004
    MIXING:  cpu time      0.0013: real time      0.0014
    --------------------------------------------
      LOOP:  cpu time     23.2700: real time     23.6789

 eigenvalue-minimisations  : 38824
 total energy-change (2. order) : 0.3593808E-03  (-0.5194897E-03)
 number of electron     436.0000015 magnetization       1.1484258
 augmentation part      112.2576086 magnetization       0.7960649

 Broyden mixing:
  rms(total) = 0.18015E+00    rms(broyden)= 0.18006E+00
  rms(prec ) = 0.19985E+00
  weight for this iteration     100.00

 eigenvalues of (default mixing * dielectric matrix)
  average eigenvalue GAMMA=   0.3797
  1.0865  1.0865  0.7953  0.4681  0.4681  0.2090  0.1469  0.0323  0.0420  0.0469
  0.0876  0.0876

 Free energy of the ion-electron system (eV)
  ---------------------------------------------------
  alpha Z        PSCENC =      1413.15811044
  Ewald energy   TEWEN  =    -22476.89191831
  -Hartree energ DENC   =    -19378.35034129
  -exchange      EXHF   =         0.00000000
  -V(xc)+E(xc)   XCENC  =      1953.26478252
  PAW double counting   =     45471.60020325   -45462.06977059
  entropy T*S    EENTRO =        -0.05492537
  eigenvalues    EBANDS =     -6433.19846100
  atomic energy  EATOM  =     44569.30852035
  Solvation  Ediel_sol  =         0.00000000
  ---------------------------------------------------
  free energy    TOTEN  =      -343.23379999 eV

  energy without entropy =     -343.17887462  energy(sigma->0) =     -343.20633730


--------------------------------------------------------------------------------------------------------




--------------------------------------- Iteration      1(  18)  ---------------------------------------


    POTLOK:  cpu time      0.0507: real time      0.0560
    SETDIJ:  cpu time      0.0081: real time      0.0081
     EDDAV:  cpu time     23.1527: real time     23.3050
       DOS:  cpu time      0.0048: real time      0.0326
    CHARGE:  cpu time      0.4864: real time      0.4886
    MIXING:  cpu time      0.0014: real time      0.0014
    --------------------------------------------
      LOOP:  cpu time     23.7040: real time     23.8916

 eigenvalue-minimisations  : 39200
 total energy-change (2. order) : 0.2598620E-03  (-0.4300254E-03)
 number of electron     436.0000015 magnetization       1.1506832
 augmentation part      112.2585274 magnetization       0.7456761

 Broyden mixing:
  rms(total) = 0.11955E+00    rms(broyden)= 0.11943E+00
  rms(prec ) = 0.13205E+00
  weight for this iteration     100.00

 eigenvalues of (default mixing * dielectric matrix)
  average eigenvalue GAMMA=   0.3931
  1.1585  1.1585  0.8124  0.5326  0.5326  0.2809  0.1938  0.1443  0.0323  0.0469
  0.0420  0.0869  0.0885

 Free energy of the ion-electron system (eV)
  ---------------------------------------------------
  alpha Z        PSCENC =      1413.15811044
  Ewald energy   TEWEN  =    -22476.89191831
  -Hartree energ DENC   =    -19378.40454699
  -exchange      EXHF   =         0.00000000
  -V(xc)+E(xc)   XCENC  =      1953.26882799
  PAW double counting   =     45471.30880729   -45461.76018608
  entropy T*S    EENTRO =        -0.05418640
  eigenvalues    EBANDS =     -6433.16696842
  atomic energy  EATOM  =     44569.30852035
  Solvation  Ediel_sol  =         0.00000000
  ---------------------------------------------------
  free energy    TOTEN  =      -343.23354012 eV

  energy without entropy =     -343.17935372  energy(sigma->0) =     -343.20644692


--------------------------------------------------------------------------------------------------------




--------------------------------------- Iteration      1(  19)  ---------------------------------------


    POTLOK:  cpu time      0.0391: real time      0.0423
    SETDIJ:  cpu time      0.0082: real time      0.0082
     EDDAV:  cpu time     22.9711: real time     23.1138
       DOS:  cpu time      0.0048: real time      0.1895
    CHARGE:  cpu time      0.4984: real time      0.5003
    MIXING:  cpu time      0.0015: real time      0.0015
    --------------------------------------------
      LOOP:  cpu time     23.5231: real time     23.8556

 eigenvalue-minimisations  : 39264
 total energy-change (2. order) :-0.4217223E-03  (-0.6043417E-03)
 number of electron     436.0000015 magnetization       1.1500709
 augmentation part      112.2577389 magnetization       0.7534716

 Broyden mixing:
  rms(total) = 0.65386E-01    rms(broyden)= 0.65066E-01
  rms(prec ) = 0.69223E-01
  weight for this iteration     100.00

 eigenvalues of (default mixing * dielectric matrix)
  average eigenvalue GAMMA=   0.4014
  1.1718  1.1718  0.8254  0.5903  0.5903  0.4289  0.2258  0.1741  0.1450  0.0323
  0.0469  0.0420  0.0871  0.0883

 Free energy of the ion-electron system (eV)
  ---------------------------------------------------
  alpha Z        PSCENC =      1413.15811044
  Ewald energy   TEWEN  =    -22476.89191831
  -Hartree energ DENC   =    -19378.46854248
  -exchange      EXHF   =         0.00000000
  -V(xc)+E(xc)   XCENC  =      1953.27271471
  PAW double counting   =     45471.11286678   -45461.54747162
  entropy T*S    EENTRO =        -0.05547719
  eigenvalues    EBANDS =     -6433.12276453
  atomic energy  EATOM  =     44569.30852035
  Solvation  Ediel_sol  =         0.00000000
  ---------------------------------------------------
  free energy    TOTEN  =      -343.23396185 eV

  energy without entropy =     -343.17848465  energy(sigma->0) =     -343.20622325


--------------------------------------------------------------------------------------------------------




--------------------------------------- Iteration      1(  20)  ---------------------------------------


    POTLOK:  cpu time      0.0499: real time      0.0569
    SETDIJ:  cpu time      0.0081: real time      0.0081
     EDDAV:  cpu time     22.5529: real time     22.7023
       DOS:  cpu time      0.0054: real time      0.1497
    CHARGE:  cpu time      0.4942: real time      0.4962
    MIXING:  cpu time      0.0016: real time      0.0016
    --------------------------------------------
      LOOP:  cpu time     23.1120: real time     23.4148

 eigenvalue-minimisations  : 38728
 total energy-change (2. order) :-0.7277604E-03  (-0.3049944E-03)
 number of electron     436.0000015 magnetization       1.1498202
 augmentation part      112.2576297 magnetization       0.7285255

 Broyden mixing:
  rms(total) = 0.57335E-01    rms(broyden)= 0.57166E-01
  rms(prec ) = 0.60113E-01
  weight for this iteration     100.00

 eigenvalues of (default mixing * dielectric matrix)
  average eigenvalue GAMMA=   0.4014
  1.1430  1.1430  0.8329  0.6819  0.6819  0.4583  0.2679  0.2060  0.1643  0.1451
  0.0323  0.0420  0.0469  0.0870  0.0883

 Free energy of the ion-electron system (eV)
  ---------------------------------------------------
  alpha Z        PSCENC =      1413.15811044
  Ewald energy   TEWEN  =    -22476.89191831
  -Hartree energ DENC   =    -19378.51668724
  -exchange      EXHF   =         0.00000000
  -V(xc)+E(xc)   XCENC  =      1953.27852149
  PAW double counting   =     45471.19478241   -45461.61889998
  entropy T*S    EENTRO =        -0.05404042
  eigenvalues    EBANDS =     -6433.09307834
  atomic energy  EATOM  =     44569.30852035
  Solvation  Ediel_sol  =         0.00000000
  ---------------------------------------------------
  free energy    TOTEN  =      -343.23468961 eV

  energy without entropy =     -343.18064919  energy(sigma->0) =     -343.20766940


--------------------------------------------------------------------------------------------------------




--------------------------------------- Iteration      1(  21)  ---------------------------------------


    POTLOK:  cpu time      0.0398: real time      0.0463
    SETDIJ:  cpu time      0.0082: real time      0.0082
     EDDAV:  cpu time     22.5092: real time     22.6720
       DOS:  cpu time      0.0049: real time      0.1442
    CHARGE:  cpu time      0.4864: real time      0.4886
    MIXING:  cpu time      0.0014: real time      0.0014
    --------------------------------------------
      LOOP:  cpu time     23.0500: real time     23.3607

 eigenvalue-minimisations  : 38160
 total energy-change (2. order) :-0.1651867E-03  (-0.1839492E-03)
 number of electron     436.0000015 magnetization       1.1500582
 augmentation part      112.2575025 magnetization       0.7236385

 Broyden mixing:
  rms(total) = 0.74300E-01    rms(broyden)= 0.74190E-01
  rms(prec ) = 0.80482E-01
  weight for this iteration     100.00

 eigenvalues of (default mixing * dielectric matrix)
  average eigenvalue GAMMA=   0.3930
  1.0996  1.0996  0.8373  0.7154  0.7154  0.4113  0.4113  0.2193  0.1889  0.0323
  0.0420  0.0469  0.1510  0.1421  0.0870  0.0883

 Free energy of the ion-electron system (eV)
  ---------------------------------------------------
  alpha Z        PSCENC =      1413.15811044
  Ewald energy   TEWEN  =    -22476.89191831
  -Hartree energ DENC   =    -19378.57415160
  -exchange      EXHF   =         0.00000000
  -V(xc)+E(xc)   XCENC  =      1953.28264726
  PAW double counting   =     45471.35364900   -45461.76730186
  entropy T*S    EENTRO =        -0.05443747
  eigenvalues    EBANDS =     -6433.04997261
  atomic energy  EATOM  =     44569.30852035
  Solvation  Ediel_sol  =         0.00000000
  ---------------------------------------------------
  free energy    TOTEN  =      -343.23485479 eV

  energy without entropy =     -343.18041732  energy(sigma->0) =     -343.20763606


--------------------------------------------------------------------------------------------------------




--------------------------------------- Iteration      1(  22)  ---------------------------------------


    POTLOK:  cpu time      0.0404: real time      0.0471
    SETDIJ:  cpu time      0.0081: real time      0.0081
     EDDAV:  cpu time     20.9254: real time     21.0555
       DOS:  cpu time      0.0050: real time      0.1244
    CHARGE:  cpu time      0.4872: real time      0.4891
    MIXING:  cpu time      0.0016: real time      0.0016
    --------------------------------------------
      LOOP:  cpu time     21.4675: real time     21.7258

 eigenvalue-minimisations  : 35000
 total energy-change (2. order) : 0.1466105E-03  (-0.3560156E-04)
 number of electron     436.0000015 magnetization       1.1503854
 augmentation part      112.2573024 magnetization       0.7228860

 Broyden mixing:
  rms(total) = 0.81908E-01    rms(broyden)= 0.81893E-01
  rms(prec ) = 0.88801E-01
  weight for this iteration     100.00

 eigenvalues of (default mixing * dielectric matrix)
  average eigenvalue GAMMA=   0.3932
  1.0447  1.0447  0.8416  0.7325  0.7325  0.4367  0.4367  0.3779  0.2391  0.2007
  0.0323  0.0420  0.0469  0.1552  0.1451  0.0870  0.0883

 Free energy of the ion-electron system (eV)
  ---------------------------------------------------
  alpha Z        PSCENC =      1413.15811044
  Ewald energy   TEWEN  =    -22476.89191831
  -Hartree energ DENC   =    -19378.59803547
  -exchange      EXHF   =         0.00000000
  -V(xc)+E(xc)   XCENC  =      1953.28359478
  PAW double counting   =     45471.36287805   -45461.76950461
  entropy T*S    EENTRO =        -0.05393705
  eigenvalues    EBANDS =     -6433.03441637
  atomic energy  EATOM  =     44569.30852035
  Solvation  Ediel_sol  =         0.00000000
  ---------------------------------------------------
  free energy    TOTEN  =      -343.23470818 eV

  energy without entropy =     -343.18077113  energy(sigma->0) =     -343.20773966


--------------------------------------------------------------------------------------------------------




--------------------------------------- Iteration      1(  23)  ---------------------------------------


    POTLOK:  cpu time      0.0398: real time      0.0468
    SETDIJ:  cpu time      0.0081: real time      0.0082
     EDDAV:  cpu time     16.2421: real time     16.3461
       DOS:  cpu time      0.0048: real time      0.0051
    CHARGE:  cpu time      0.4925: real time      0.4944
    MIXING:  cpu time      0.0016: real time      0.0016
    --------------------------------------------
      LOOP:  cpu time     16.7889: real time     16.9021

 eigenvalue-minimisations  : 24800
 total energy-change (2. order) : 0.1303958E-03  (-0.8299273E-05)
 number of electron     436.0000015 magnetization       1.1508674
 augmentation part      112.2572149 magnetization       0.7217956

 Broyden mixing:
  rms(total) = 0.87811E-01    rms(broyden)= 0.87807E-01
  rms(prec ) = 0.95559E-01
  weight for this iteration     100.00

 eigenvalues of (default mixing * dielectric matrix)
  average eigenvalue GAMMA=   0.4188
  0.8469  0.9510  0.9510  0.8504  0.8504  0.6263  0.6263  0.4288  0.3893  0.2275
  0.1947  0.0323  0.0420  0.0469  0.1541  0.1445  0.0870  0.0883

 Free energy of the ion-electron system (eV)
  ---------------------------------------------------
  alpha Z        PSCENC =      1413.15811044
  Ewald energy   TEWEN  =    -22476.89191831
  -Hartree energ DENC   =    -19378.60410090
  -exchange      EXHF   =         0.00000000
  -V(xc)+E(xc)   XCENC  =      1953.28426957
  PAW double counting   =     45471.37805407   -45461.78259254
  entropy T*S    EENTRO =        -0.05384212
  eigenvalues    EBANDS =     -6433.03107836
  atomic energy  EATOM  =     44569.30852035
  Solvation  Ediel_sol  =         0.00000000
  ---------------------------------------------------
  free energy    TOTEN  =      -343.23457779 eV

  energy without entropy =     -343.18073567  energy(sigma->0) =     -343.20765673


--------------------------------------------------------------------------------------------------------




--------------------------------------- Iteration      1(  24)  ---------------------------------------


    POTLOK:  cpu time      0.0495: real time      0.0685
    SETDIJ:  cpu time      0.0081: real time      0.0081
     EDDAV:  cpu time     13.9206: real time     14.0169
       DOS:  cpu time      0.0052: real time      0.0053
    CHARGE:  cpu time      0.4882: real time      0.4902
    MIXING:  cpu time      0.0016: real time      0.0016
    --------------------------------------------
      LOOP:  cpu time     14.4732: real time     14.5906

 eigenvalue-minimisations  : 19136
[...]
     7.376459915 -0.007374283 -0.097411689     0.135615919  0.078101327 -0.002161463
    -3.680253419  6.392593383  0.078224744     0.000157805  0.156520652  0.000100719
     0.286578381 -0.011589756 17.561911972     0.000751526 -0.000263969  0.056928971

  length of vectors
     7.377106770  7.376695365 17.564253859     0.156512513  0.156520764  0.056934543


 FORCES acting on ions
    electron-ion (+dipol)            ewald-force                    non-local-force                 convergence-correction
 -----------------------------------------------------------------------------------------------
   0.279E+02 0.608E+01 0.493E+01   -.274E+02 -.423E+01 -.509E+01   -.505E+00 -.184E+01 0.211E+00   -.748E-02 -.918E-02 -.618E-01
   0.784E+02 -.336E+02 0.574E+01   -.802E+02 0.337E+02 -.607E+01   0.181E+01 -.476E-01 0.374E+00   -.530E-02 0.125E-01 -.603E-01
   -.351E+02 -.819E+02 0.535E+02   0.356E+02 0.819E+02 -.538E+02   -.542E+00 -.247E-01 0.346E+00   0.128E-01 -.187E-01 -.315E-01
   -.432E+02 0.799E+02 -.490E+02   0.437E+02 -.800E+02 0.486E+02   -.474E+00 0.690E-01 0.366E+00   -.454E-02 0.164E-02 0.921E-01
   0.124E+02 -.279E+00 0.457E+01   -.124E+02 0.274E+00 -.465E+01   -.179E-02 0.881E-02 0.536E-02   0.103E-03 0.269E-03 0.472E-01
   0.166E+02 -.221E+02 -.116E+03   -.165E+02 0.220E+02 0.116E+03   -.838E-01 0.108E+00 0.388E+00   -.920E-03 0.134E-02 0.218E-01
   -.677E+02 0.273E+02 0.147E+03   0.681E+02 -.275E+02 -.146E+03   -.377E+00 0.155E+00 -.202E+00   0.109E-02 -.233E-03 -.663E-01
   -.358E+01 0.455E+02 -.113E+03   0.360E+01 -.459E+02 0.113E+03   -.152E-01 0.351E+00 -.952E+00   0.937E-03 0.199E-02 0.201E-01
   0.645E+02 0.519E+02 0.147E+03   -.647E+02 -.518E+02 -.148E+03   0.135E+00 -.391E-01 0.821E+00   0.956E-03 0.966E-02 -.732E-01
   0.157E+01 -.674E+01 0.848E+01   -.151E+01 0.673E+01 -.878E+01   -.553E-01 0.937E-02 0.243E+00   -.571E-02 0.374E-02 0.542E-01
   0.657E+01 0.810E+01 -.379E+01   -.651E+01 -.807E+01 0.386E+01   -.672E-01 -.234E-01 -.122E+00   0.737E-02 0.291E-02 0.521E-01
   -.345E+02 -.389E+02 -.151E+03   0.347E+02 0.391E+02 0.152E+03   -.236E+00 -.195E+00 -.789E+00   0.132E-02 0.254E-03 0.230E-01
   0.812E+01 0.670E+01 0.853E+02   -.805E+01 -.656E+01 -.853E+02   -.839E-01 -.149E+00 0.111E-01   0.645E-02 -.316E-02 -.744E-01
   0.135E+03 -.125E+03 0.209E+03   -.142E+03 0.131E+03 -.217E+03   0.709E+01 -.613E+01 0.875E+01   0.425E-01 -.207E-01 -.771E-01
   -.184E+03 -.684E+02 0.148E+03   0.196E+03 0.739E+02 -.157E+03   -.116E+02 -.550E+01 0.866E+01   -.305E-02 -.706E-03 0.593E-01
   -.638E+02 0.908E+02 0.739E+02   0.661E+02 -.974E+02 -.796E+02   -.237E+01 0.657E+01 0.574E+01   -.128E-02 -.153E-02 -.421E-01
   0.113E+03 -.123E+03 -.113E+03   -.115E+03 0.131E+03 0.120E+03   0.262E+01 -.845E+01 -.718E+01   -.410E-02 0.211E-01 -.870E-01
   -.189E+03 0.629E+02 -.141E+03   0.200E+03 -.679E+02 0.150E+03   -.113E+02 0.496E+01 -.909E+01   -.207E-01 0.618E-02 -.156E-01
   0.122E+03 0.134E+03 -.209E+03   -.129E+03 -.141E+03 0.219E+03   0.720E+01 0.731E+01 -.989E+01   -.344E-02 -.844E-02 0.396E-01
   -.138E+02 0.378E+03 -.171E+03   0.115E+02 -.404E+03 0.191E+03   0.225E+01 0.260E+02 -.202E+02   -.228E-02 -.155E-02 0.588E-01
   0.331E+03 -.183E+03 -.187E+03   -.352E+03 0.197E+03 0.206E+03   0.209E+02 -.135E+02 -.186E+02   -.118E-01 0.992E-02 -.131E-01
   -.324E+03 -.200E+03 -.106E+03   0.347E+03 0.210E+03 0.125E+03   -.231E+02 -.982E+01 -.192E+02   -.301E-01 -.219E-01 -.540E-01
   -.313E+03 0.195E+03 0.124E+03   0.335E+03 -.205E+03 -.144E+03   -.219E+02 0.931E+01 0.202E+02   0.523E-02 -.635E-02 0.386E-01
   0.282E+03 0.184E+01 0.191E+03   -.297E+03 -.529E+01 -.207E+03   0.153E+02 0.346E+01 0.166E+02   -.140E-01 -.381E-02 -.521E-01
   -.617E+01 -.373E+03 0.173E+03   0.343E+01 0.397E+03 -.193E+03   0.273E+01 -.249E+02 0.202E+02   0.598E-02 -.381E-01 0.205E-01
   0.219E+01 -.200E+03 -.210E+03   -.302E+01 0.209E+03 0.221E+03   0.817E+00 -.898E+01 -.113E+02   0.354E-03 -.125E-01 0.775E-01
   -.164E+03 0.114E+03 -.128E+03   0.171E+03 -.119E+03 0.136E+03   -.753E+01 0.525E+01 -.851E+01   -.119E-02 0.376E-02 -.278E-01
   0.188E+03 0.983E+02 -.147E+03   -.197E+03 -.104E+03 0.158E+03   0.957E+01 0.537E+01 -.104E+02   0.333E-01 0.146E-01 0.926E-02
   0.182E+03 -.849E+02 0.155E+03   -.191E+03 0.887E+02 -.166E+03   0.941E+01 -.384E+01 0.117E+02   -.101E-01 0.108E-01 0.941E-01
   -.135E+03 -.113E+02 0.841E+02   0.142E+03 0.146E+02 -.904E+02   -.735E+01 -.334E+01 0.633E+01   0.822E-02 0.133E-01 -.137E-01
   -.694E-01 0.194E+03 0.225E+03   0.139E+01 -.203E+03 -.238E+03   -.133E+01 0.850E+01 0.132E+02   0.535E-02 0.152E-01 -.754E-02
   -.274E+02 0.197E+03 0.906E+02   0.285E+02 -.211E+03 -.986E+02   -.115E+01 0.142E+02 0.804E+01   0.525E-02 -.181E-01 -.575E-02
   0.151E+03 -.987E+02 0.219E+03   -.161E+03 0.107E+03 -.227E+03   0.104E+02 -.776E+01 0.784E+01   -.107E-01 -.169E-01 -.459E-01
   -.164E+03 -.108E+03 0.153E+03   0.175E+03 0.114E+03 -.161E+03   -.116E+02 -.640E+01 0.843E+01   -.972E-03 -.410E-02 0.400E-01
   -.166E+03 0.110E+03 -.149E+03   0.178E+03 -.117E+03 0.157E+03   -.115E+02 0.663E+01 -.865E+01   0.278E-02 0.390E-01 0.179E-01
   0.188E+03 0.993E+02 -.231E+03   -.198E+03 -.106E+03 0.240E+03   0.107E+02 0.677E+01 -.855E+01   0.869E-02 -.418E-01 0.186E-01
   -.145E+02 -.175E+03 0.319E+02   0.156E+02 0.186E+03 -.312E+02   -.995E+00 -.110E+02 -.654E+00   -.493E-01 -.448E-02 -.573E-01
   0.126E+03 -.706E+02 0.253E+03   -.132E+03 0.717E+02 -.268E+03   0.511E+01 -.113E+01 0.144E+02   0.672E-02 -.702E-02 -.557E-01
   0.117E+02 0.280E+02 0.484E+03   -.197E+02 -.315E+02 -.515E+03   0.796E+01 0.357E+01 0.304E+02   -.927E-02 0.184E-02 -.400E-01
   0.249E+02 -.250E+02 0.432E+03   -.251E+02 0.322E+02 -.462E+03   0.185E+00 -.726E+01 0.300E+02   0.368E-02 -.177E-03 0.554E-01
   0.145E+02 0.270E+02 -.427E+03   -.144E+02 -.342E+02 0.457E+03   -.254E-01 0.727E+01 -.300E+02   -.507E-02 0.297E-03 -.576E-02
   0.869E+00 -.349E+02 -.475E+03   -.651E+01 0.389E+02 0.506E+03   0.566E+01 -.402E+01 -.308E+02   -.817E-02 0.729E-02 0.876E-01
   -.176E+03 0.619E+02 -.293E+03   0.189E+03 -.622E+02 0.310E+03   -.127E+02 0.296E+00 -.172E+02   0.301E-02 -.271E-02 -.372E-01
   0.210E+02 -.235E+03 -.227E+03   -.218E+02 0.249E+03 0.234E+03   0.766E+00 -.138E+02 -.675E+01   -.447E-02 0.162E-01 0.268E-01
   -.198E+03 0.114E+03 -.106E+03   0.208E+03 -.122E+03 0.115E+03   -.104E+02 0.790E+01 -.966E+01   0.138E-01 0.143E-01 -.414E-01
   0.177E+03 0.118E+03 -.154E+03   -.189E+03 -.124E+03 0.162E+03   0.118E+02 0.654E+01 -.840E+01   0.466E-02 0.463E-02 0.228E-01
   0.176E+03 -.120E+03 0.163E+03   -.188E+03 0.127E+03 -.171E+03   0.116E+02 -.679E+01 0.859E+01   -.653E-02 -.378E-01 0.458E-01
   -.179E+03 -.817E+02 0.121E+03   0.190E+03 0.875E+02 -.132E+03   -.106E+02 -.582E+01 0.106E+02   -.553E-02 0.404E-01 0.387E-02
   0.175E+02 0.225E+03 0.168E+03   -.178E+02 -.241E+03 -.173E+03   0.251E+00 0.154E+02 0.528E+01   0.527E-01 0.812E-02 -.357E-01
   -.308E+01 -.156E+03 0.257E+03   0.344E+01 0.164E+03 -.270E+03   -.390E+00 -.800E+01 0.123E+02   0.340E-01 -.759E-02 0.607E-01
   -.175E+03 0.102E+03 0.137E+03   0.182E+03 -.104E+03 -.147E+03   -.738E+01 0.277E+01 0.105E+02   -.249E-01 -.558E-01 -.733E-02
   0.152E+03 0.919E+02 0.318E+03   -.159E+03 -.972E+02 -.331E+03   0.714E+01 0.518E+01 0.132E+02   -.323E-01 0.617E-01 -.364E-01
   0.145E+03 -.734E+02 -.305E+03   -.153E+03 0.773E+02 0.318E+03   0.857E+01 -.401E+01 -.131E+02   0.286E-01 0.607E-01 0.279E-01
   -.931E+02 -.908E+02 -.200E+03   0.998E+02 0.950E+02 0.213E+03   -.675E+01 -.408E+01 -.130E+02   0.312E-01 -.568E-01 -.591E-01
   -.172E+01 0.157E+03 -.252E+03   0.102E+01 -.165E+03 0.265E+03   0.729E+00 0.798E+01 -.122E+02   -.325E-01 0.100E-01 0.672E-02
 -----------------------------------------------------------------------------------------------
   0.174E+01 0.496E+01 0.180E+01   -.944E-13 0.142E-12 0.512E-12   -.176E+01 -.495E+01 -.173E+01   0.114E-01 -.642E-02 -.626E-01
 
 
 POSITION                                       TOTAL-FORCE (eV/Angst)
 -----------------------------------------------------------------------------------
      4.47483      3.19242      5.65389        -0.005874      0.003904     -0.008505
      2.26836      0.00223      5.84107        -0.013806     -0.009574     -0.015096
      2.93407      4.57486     17.51224         0.005677     -0.004217     -0.008316
     -0.82700      1.81177     11.76521         0.019174     -0.001751      0.006807
      2.84805     -0.01060     14.60719         0.004800      0.003904     -0.025626
      2.51672      4.15287      8.89155         0.000508      0.007068     -0.002706
      6.12654      2.19499      2.75999         0.006643      0.003143      0.017052
      4.39164      0.95018      8.74870         0.007828      0.010257      0.006666
      2.39277      2.21350      2.81088         0.005796      0.012144     -0.004745
      4.69772      3.18412     14.57706        -0.001049     -0.002432     -0.003102
      1.01107      3.18370     14.66383         0.004829      0.005237     -0.002153
     -1.14957      4.15798      8.90582        -0.002971      0.004742      0.011938
      0.59705      5.41829      2.92133        -0.003450     -0.012693      0.004259
      1.28097      5.25376      1.15426        -0.006677     -0.003467      0.003080
      0.51772      2.71563     12.82651        -0.012532     -0.003724      0.000445
     -1.34472      4.71353      7.00988         0.002497     -0.002225      0.008281
      2.42923      1.67356      4.73533         0.003289      0.006517     -0.006304
      4.26060      3.67072     16.41094         0.000153     -0.000049      0.002157
      5.12544      1.08254     10.51990         0.003543      0.002784     -0.006831
      6.43348      0.45676     12.76477         0.002443      0.011681     -0.002664
      1.09611      0.75753      6.92250         0.000700      0.001266      0.001532
      3.89918      5.12216      1.06178        -0.006730     -0.010490     -0.001846
      0.37727      1.30134     10.57852        -0.003936      0.018811      0.002708
     -2.64097      5.37047      4.93733         0.021519      0.009836      0.003981
      2.78267      5.91115     16.38606         0.001509     -0.005351      0.010613
     -1.05013      3.45897     10.68148        -0.006298      0.006680      0.001693
     -0.00988      5.65737      4.73960         0.001557     -0.004551     -0.001006
      1.52661      3.61315     16.49540        -0.005206      0.000904     -0.001472
      5.13794      2.73748     12.75479         0.000991     -0.000199      0.003527
      3.80528      0.88896      6.81480        -0.004956      0.000832      0.006346
      2.53636      2.87357      1.03142        -0.000387     -0.005158     -0.003473
      0.66632      3.60877      8.53908        -0.000543      0.011997      0.001124
     -0.76051      4.05106      2.58242        -0.000429     -0.005795      0.003589
      0.53857      5.04568     14.32897        -0.004296     -0.003921     -0.005976
      4.22530      1.33208     14.94745        -0.004713     -0.004371     -0.004269
      3.03978      2.29353      9.13969         0.002581      0.008122      0.010935
      4.24821      2.79562      3.25874        -0.001554     -0.007656     -0.008233
      2.90446      3.88663      7.04607         0.003849     -0.007359     -0.000956
      5.65844      1.97419      1.07840        -0.001510      0.002413     -0.010088
      2.83751      0.43769     12.90090        -0.003951     -0.000973      0.019686
     -0.82666      5.92946     16.39004         0.013198     -0.004047      0.002703
      2.17181      4.39578     10.59853         0.007935      0.006774      0.004330
     -1.01269      2.49240      4.72329        -0.016552     -0.010905     -0.001408
      4.38985      4.68455      9.10632        -0.000013     -0.001705     -0.001306
      5.64883      0.38192      3.23051         0.000333     -0.005891     -0.010072
      1.47000      1.31400     14.97909         0.007341      0.004427      0.004117
     -2.21619      5.05038     14.32616         0.009887      0.006048      0.010029
      2.03852      5.98074      8.40486        -0.007167      0.000418     -0.001260
      0.57413      1.63675      2.64038        -0.001766     -0.002148      0.000900
      2.83393      3.50158     14.12564         0.004387     -0.002843      0.007126
      5.51589      2.42543      8.02863        -0.010107     -0.004247      0.001672
      3.03386      0.44737      2.30273        -0.002375     -0.005154     -0.000956
     -0.52554      5.95975      9.35837        -0.010646     -0.008433     -0.004008
      1.82427      3.97592      3.48478        -0.003749     -0.012153     -0.010242
     -0.82452      2.87000     15.16479         0.000277      0.003572     -0.004677
 -----------------------------------------------------------------------------------
    total drift:                               -0.009330      0.002361      0.004241


--------------------------------------------------------------------------------------------------------



  FREE ENERGIE OF THE ION-ELECTRON SYSTEM (eV)
  ---------------------------------------------------
  free  energy   TOTEN  =      -343.23529861 eV

  energy  without entropy=     -343.18175167  energy(sigma->0) =     -343.20852514
 


--------------------------------------------------------------------------------------------------------


    POTLOK:  cpu time      0.0447: real time      0.0449


--------------------------------------------------------------------------------------------------------




--------------------------------------------------------------------------------------------------------


  
 reached required accuracy - stopping structural energy minimisation
     LOOP+:  cpu time    848.1921: real time    857.0508
    4ORBIT:  cpu time      0.0000: real time      0.0000



 total charge

# of ion       s       p       d       tot
------------------------------------------
    1        2.014   5.858   0.184   8.055
    2        0.242   6.264   2.863   9.370
    3        0.275   6.316   2.843   9.434
    4        0.276   6.318   2.844   9.437
    5        0.274   6.346   2.800   9.419
    6        0.254   6.295   2.817   9.365
    7        0.256   6.298   2.836   9.390
    8        0.216   6.224   2.842   9.281
    9        0.219   6.229   2.860   9.308
   10        0.222   6.238   2.825   9.285
   11        0.221   6.236   2.828   9.285
   12        0.215   6.225   2.866   9.306
   13        0.217   6.230   2.854   9.301
   14        1.739   4.366   0.000   6.105
   15        1.738   4.365   0.000   6.103
   16        1.736   4.381   0.000   6.117
   17        1.735   4.374   0.000   6.109
   18        1.738   4.366   0.000   6.104
   19        1.738   4.367   0.000   6.105
   20        1.752   4.297   0.000   6.049
   21        1.749   4.307   0.000   6.056
   22        1.750   4.302   0.000   6.052
   23        1.750   4.302   0.000   6.052
   24        1.740   4.348   0.000   6.088
   25        1.751   4.299   0.000   6.050
   26        1.739   4.368   0.000   6.107
   27        1.738   4.371   0.000   6.109
   28        1.738   4.366   0.000   6.104
   29        1.738   4.365   0.000   6.103
   30        1.735   4.373   0.000   6.108
   31        1.739   4.366   0.000   6.104
   32        1.738   4.363   0.000   6.102
   33        1.738   4.369   0.000   6.107
   34        1.738   4.364   0.000   6.102
   35        1.738   4.363   0.000   6.101
   36        1.738   4.367   0.000   6.105
   37        1.736   4.379   0.000   6.115
   38        1.739   4.368   0.000   6.107
   39        1.750   4.303   0.000   6.053
   40        1.751   4.300   0.000   6.051
   41        1.751   4.301   0.000   6.052
   42        1.750   4.302   0.000   6.052
   43        1.740   4.357   0.000   6.097
   44        1.738   4.365   0.000   6.103
   45        1.738   4.370   0.000   6.108
   46        1.738   4.364   0.000   6.102
   47        1.738   4.363   0.000   6.102
   48        1.738   4.366   0.000   6.104
   49        1.739   4.364   0.000   6.103
   50        1.739   4.364   0.000   6.103
   51        1.735   4.372   0.000   6.107
   52        1.737   4.368   0.000   6.104
   53        1.737   4.367   0.000   6.105
   54        1.736   4.369   0.000   6.105
   55        1.738   4.364   0.000   6.103
--------------------------------------------------
tot         78.004 263.891  34.260 376.155



 magnetization (x)

# of ion       s       p       d       tot
------------------------------------------
    1        0.000   0.000   0.001   0.002
    2        0.010   0.009   1.528   1.547
    3        0.006   0.006   1.066   1.077
    4        0.006   0.006   1.046   1.058
    5        0.005   0.006   0.846   0.857
    6        0.007   0.008   1.318   1.334
    7       -0.008  -0.009  -1.316  -1.332
    8       -0.008  -0.010  -1.721  -1.739
    9       -0.009  -0.011  -1.809  -1.829
   10       -0.009  -0.010  -1.721  -1.740
   11       -0.009  -0.010  -1.737  -1.756
   12        0.010   0.011   1.859   1.880
   13        0.009   0.010   1.796   1.815
   14       -0.001  -0.028   0.000  -0.029
   15        0.000   0.004   0.000   0.005
   16       -0.000  -0.001   0.000  -0.001
   17        0.000   0.006   0.000   0.006
   18        0.000   0.004   0.000   0.004
   19        0.000  -0.002   0.000  -0.001
   20       -0.000  -0.024   0.000  -0.024
   21       -0.000  -0.011   0.000  -0.011
   22       -0.000  -0.006   0.000  -0.006
   23        0.000   0.010   0.000   0.010
   24        0.000   0.010   0.000   0.010
   25        0.000   0.001   0.000   0.001
   26       -0.001  -0.014   0.000  -0.015
   27       -0.001  -0.024   0.000  -0.025
   28        0.000  -0.006   0.000  -0.006
   29        0.000  -0.002   0.000  -0.002
   30        0.000  -0.001   0.000  -0.001
   31        0.000  -0.001   0.000  -0.001
   32       -0.000  -0.002   0.000  -0.002
   33       -0.000  -0.003   0.000  -0.003
   34        0.000   0.008   0.000   0.009
   35        0.000   0.010   0.000   0.010
   36       -0.000   0.004   0.000   0.004
   37        0.000  -0.002   0.000  -0.002
   38       -0.000  -0.005   0.000  -0.005
   39        0.000   0.015   0.000   0.015
   40       -0.000  -0.038   0.000  -0.038
   41       -0.000  -0.038   0.000  -0.038
   42       -0.000  -0.019   0.000  -0.020
   43        0.000   0.006   0.000   0.006
   44       -0.000  -0.003   0.000  -0.003
   45       -0.000  -0.002   0.000  -0.002
   46        0.000   0.008   0.000   0.008
   47        0.000   0.010   0.000   0.010
   48       -0.000   0.003   0.000   0.003
   49        0.000   0.014   0.000   0.015
   50        0.001   0.024   0.000   0.024
   51        0.000   0.000   0.000   0.000
   52        0.000   0.001   0.000   0.001
   53       -0.000  -0.000   0.000  -0.000
   54       -0.000   0.004   0.000   0.004
   55        0.001   0.024   0.000   0.025
--------------------------------------------------
tot          0.009  -0.057   1.158   1.110
 

 total amount of memory used by VASP MPI-rank0    88438. kBytes
=======================================================================

   base      :      30000. kBytes
   nonlr-proj:      10053. kBytes
   fftplans  :       2009. kBytes
   grid      :       5291. kBytes
   one-center:        124. kBytes
   wavefun   :      40961. kBytes
 
  
  
 General timing and accounting informations for this job:
 ========================================================
  
                  Total CPU time used (sec):      882.620
                            User time (sec):      879.078
                          System time (sec):        3.541
                         Elapsed time (sec):      894.301
  
                   Maximum memory used (kb):      372420.
                   Average memory used (kb):          N/A
  
                          Minor page faults:        76006
                          Major page faults:            0
                 Voluntary context switches:         1970
