       N       E                     dE             d eps       ncg     rms          ort
DAV:   1     0.538135180509E+04    0.53814E+04   -0.25764E+05  7488   0.160E+03
DAV:   2     0.274620766199E+03   -0.51067E+04   -0.48504E+04  7488   0.451E+02
DAV:   3    -0.378429326374E+03   -0.65305E+03   -0.63780E+03  7488   0.172E+02
DAV:   4    -0.403705039620E+03   -0.25276E+02   -0.24838E+02  7488   0.392E+01
DAV:   5    -0.404690247516E+03   -0.98521E+00   -0.97874E+00  7488   0.681E+00
SDA:   6    -0.180159767174E+03    0.22453E+03   -0.97874E+00  7488   0.138E+04 0.000E+00
CGA:   7    -0.196011853718E+03   -0.15852E+02   -0.85445E+02  7488   0.356E+04-0.417E+03
CGA:   8    -0.233468700501E+03   -0.37457E+02   -0.90970E+02  7488   0.274E+04-0.140E+04
CGA:   9    -0.282632655474E+03   -0.49164E+02   -0.41289E+02  7488   0.407E+03 0.457E+02
CGA:  10    -0.264273885254E+03    0.18359E+02   -0.21740E+02  7488   0.201E+04-0.532E+03
CGA:  11    -0.135798040616E+03    0.12848E+03   -0.96766E+02  7488   0.840E+04-0.320E+04
CGA:  12     0.185200455730E+03    0.32100E+03   -0.47836E+03  7488   0.237E+05-0.144E+05
CGA:  13    -0.279137885937E+02   -0.21311E+03   -0.10650E+04  7488   0.108E+04-0.135E+04
CGA:  14    -0.991861047083E+02   -0.71272E+02   -0.12583E+02  7488   0.566E+04 0.677E+04
CGA:  15    -0.278975314417E+02    0.71289E+02   -0.23992E+03  7488   0.288E+04-0.247E+04
CGA:  16    -0.241233219310E+03   -0.21334E+03   -0.50836E+02  7488   0.375E+04-0.747E+04
CGA:  17    -0.508099521188E+02    0.19042E+03   -0.15135E+03  7488   0.446E+04-0.257E+04
CGA:  18    -0.169400158403E+03   -0.11859E+03   -0.13443E+03  7488   0.459E+04-0.391E+04
CGA:  19    -0.133037682893E+03    0.36362E+02   -0.15687E+03  7488   0.150E+05-0.138E+05
CGA:  20    -0.310048519382E+02    0.10203E+03   -0.81190E+03  7488   0.721E+03-0.585E+03
CGA:  21    -0.425517993379E+02   -0.11547E+02   -0.55349E+01  7488   0.734E+03 0.730E+03
CGA:  22    -0.593554442582E+02   -0.16804E+02   -0.55723E+01  7488   0.395E+04 0.411E+04
CGA:  23    -0.283722406066E+03   -0.22437E+03   -0.94211E+02  7488   0.305E+04-0.630E+04
CGA:  24    -0.186615304217E+03    0.97107E+02   -0.12177E+03  7488   0.694E+04-0.396E+04
CGA:  25    -0.105457603387E+03    0.81158E+02   -0.19758E+03  7488   0.127E+05-0.846E+04
CGA:  26    -0.118585909790E+03   -0.13128E+02   -0.45383E+03  7488   0.132E+04-0.149E+04
CGA:  27    -0.299375232760E+03   -0.18079E+03   -0.26390E+02  7488   0.914E+03 0.214E+04
CGA:  28    -0.318249780901E+03   -0.18875E+02   -0.17168E+02  7488   0.139E+04-0.142E+04
CGA:  29    -0.305121852378E+03    0.13128E+02   -0.29683E+02  7488   0.368E+04-0.264E+04
CGA:  30    -0.216839949264E+03    0.88282E+02   -0.96521E+02  7488   0.110E+05-0.550E+04
CGA:  31    -0.128711084142E+03    0.88129E+02   -0.32052E+03  7488   0.162E+04-0.102E+04
CGA:  32    -0.293677048042E+03   -0.16497E+03   -0.29136E+02  7488   0.246E+04-0.586E+04
CGA:  33    -0.270298099744E+03    0.23379E+02   -0.54577E+02  7488   0.758E+04-0.603E+04
CGA:  34    -0.143488066075E+03    0.12681E+03   -0.20763E+03  7488   0.104E+05-0.551E+04
CGA:  35    -0.136622001810E+03    0.68661E+01   -0.25430E+03  7488   0.273E+04-0.246E+04
CGA:  36    -0.281961271139E+03   -0.14534E+03   -0.41275E+02  7488   0.365E+04-0.744E+04
CGA:  37    -0.215785967734E+03    0.66175E+02   -0.84829E+02  7488   0.128E+05-0.888E+04
CGA:  38    -0.626290712214E+02    0.15316E+03   -0.34438E+03  7488   0.806E+04-0.506E+04
CGA:  39    -0.256853407319E+03   -0.19422E+03   -0.81774E+02  7488   0.100E+05-0.105E+05
CGA:  40    -0.138969040586E+03    0.11788E+03   -0.23320E+03  7488   0.151E+05-0.947E+04
CGA:  41    -0.119011163219E+03    0.19958E+02   -0.38895E+03  7488   0.701E+04-0.423E+04
CGA:  42    -0.259757181956E+03   -0.14075E+03   -0.65331E+02  7488   0.437E+04 0.394E+04
CGA:  43    -0.288666674351E+03   -0.28909E+02   -0.79783E+02  7488   0.562E+04-0.496E+04
CGA:  44    -0.218937435324E+03    0.69729E+02   -0.10887E+03  7488   0.137E+05-0.807E+04
CGA:  45    -0.574794664831E+02    0.16146E+03   -0.28802E+03  7488   0.122E+05-0.720E+04
CGA:  46    -0.160852771438E+03   -0.10337E+03   -0.20943E+03  7488   0.949E+04-0.108E+05
CGA:  47    -0.192267371924E+03   -0.31415E+02   -0.18039E+03  7488   0.177E+05-0.200E+05
CGA:  48    -0.173885767670E+03    0.18382E+02   -0.35489E+03  7488   0.934E+04-0.916E+04
CGA:  49    -0.230703333463E+03   -0.56818E+02   -0.16390E+03  7488   0.906E+04-0.115E+05
CGA:  50    -0.221817466049E+03    0.88859E+01   -0.16782E+03  7488   0.130E+05-0.131E+05
CGA:  51    -0.236187499415E+03   -0.14370E+02   -0.22016E+03  7488   0.115E+05-0.124E+05
CGA:  52    -0.211824808059E+03    0.24363E+02   -0.20704E+03  7488   0.168E+05-0.147E+05
CGA:  53    -0.236705633597E+03   -0.24881E+02   -0.27847E+03  7488   0.117E+05-0.127E+05
CGA:  54    -0.264434256583E+03   -0.27729E+02   -0.19712E+03  7488   0.104E+05-0.124E+05
CGA:  55    -0.310134196780E+03   -0.45700E+02   -0.14215E+03  7488   0.284E+04-0.472E+04
CGA:  56    -0.330253657813E+03   -0.20119E+02   -0.10913E+02  7488   0.127E+04 0.133E+04
CGA:  57    -0.336491319155E+03   -0.62377E+01   -0.14283E+02  7488   0.977E+03-0.206E+04
CGA:  58    -0.341230430320E+03   -0.47391E+01   -0.83939E+01  7488   0.185E+03-0.395E+03
CGA:  59    -0.342448789667E+03   -0.12184E+01   -0.11304E+01  7488   0.287E+01 0.528E+01
CGA:  60    -0.342502971015E+03   -0.54181E-01   -0.55408E-01  7488   0.487E+01-0.134E-01
CGA:  61    -0.342631135765E+03   -0.12816E+00   -0.12888E+00  7488   0.683E+01 0.721E-01
CGA:  62    -0.342866835363E+03   -0.23570E+00   -0.23155E+00  7488   0.942E+01 0.735E+00
CGA:  63    -0.343152310325E+03   -0.28547E+00   -0.26961E+00  7488   0.601E+01-0.604E+00
CGA:  64    -0.343211872738E+03   -0.59562E-01   -0.46282E-01  7488   0.275E+01 0.139E+01
CGA:  65    -0.343244245472E+03   -0.32373E-01   -0.34079E-01  7488   0.179E+01-0.118E+00
CGA:  66    -0.343280551528E+03   -0.36306E-01   -0.37347E-01  7488   0.334E+01 0.386E-01
CGA:  67    -0.343350758659E+03   -0.70207E-01   -0.71599E-01  7488   0.456E+01 0.551E-01
CGA:  68    -0.343440510166E+03   -0.89752E-01   -0.81169E-01  7488   0.400E+01 0.214E+00
CGA:  69    -0.343487465414E+03   -0.46955E-01   -0.47330E-01  7488   0.193E+01 0.211E-01
CGA:  70    -0.343507822966E+03   -0.20358E-01   -0.22159E-01  7488   0.883E+00-0.870E-01
CGA:  71    -0.343521121574E+03   -0.13299E-01   -0.13963E-01  7488   0.708E+00-0.161E-02
CGA:  72    -0.343537569736E+03   -0.16448E-01   -0.16492E-01  7488   0.105E+01 0.101E-01
CGA:  73    -0.343569700168E+03   -0.32130E-01   -0.31515E-01  7488   0.113E+01 0.825E-01
CGA:  74    -0.343590598893E+03   -0.20899E-01   -0.22040E-01  7488   0.334E+00 0.239E-01
CGA:  75    -0.343600327347E+03   -0.97285E-02   -0.96308E-02  7488   0.224E+00 0.172E-01
CGA:  76    -0.343608648613E+03   -0.83213E-02   -0.81969E-02  7488   0.196E+00 0.953E-02
CGA:  77    -0.343617146535E+03   -0.84979E-02   -0.83382E-02  7488   0.268E+00 0.879E-02
CGA:  78    -0.343627586629E+03   -0.10440E-01   -0.10222E-01  7488   0.120E+00 0.160E-01
CGA:  79    -0.343633352667E+03   -0.57660E-02   -0.55828E-02  7488   0.678E-01 0.917E-02
CGA:  80    -0.343636361763E+03   -0.30091E-02   -0.29754E-02  7488   0.728E-01 0.198E-02
CGA:  81    -0.343639925491E+03   -0.35637E-02   -0.35506E-02  7488   0.648E-01 0.537E-03
CGA:  82    -0.343642751577E+03   -0.28261E-02   -0.27860E-02  7488   0.454E-01 0.225E-02
CGA:  83    -0.343644696410E+03   -0.19448E-02   -0.19354E-02  7488   0.251E-01 0.534E-03
CGA:  84    -0.343645472174E+03   -0.77576E-03   -0.77573E-03  7488   0.188E-01 0.962E-04
CGA:  85    -0.343646504584E+03   -0.10324E-02   -0.10301E-02  7488   0.139E-01 0.751E-04
CGA:  86    -0.343647614780E+03   -0.11102E-02   -0.10894E-02  7488   0.140E-01 0.487E-03
CGA:  87    -0.343648204020E+03   -0.58924E-03   -0.58910E-03  7488   0.123E-01 0.689E-05
SDA:  88    -0.343648620503E+03   -0.41648E-03   -0.41658E-03  7488   0.545E-02 0.121E-03
CGA:  89    -0.343648753989E+03   -0.13349E-03   -0.13370E-03  7488   0.224E-02 0.143E-04
CGA:  90    -0.343648864189E+03   -0.11020E-03   -0.10934E-03  7488   0.376E-02 0.538E-04
CGA:  91    -0.343649416585E+03   -0.55240E-03   -0.52824E-03  7488   0.686E-02 0.232E-03
CGA:  92    -0.343649819198E+03   -0.40261E-03   -0.39930E-03  7488   0.212E-02 0.205E-03
CGA:  93    -0.343649941982E+03   -0.12278E-03   -0.12190E-03  7488   0.264E-02 0.583E-04
CGA:  94    -0.343650065782E+03   -0.12380E-03   -0.12339E-03  7488   0.265E-02 0.846E-04
CGA:  95    -0.343650192426E+03   -0.12664E-03   -0.12639E-03  7488   0.132E-02 0.552E-04
CGA:  96    -0.343650303733E+03   -0.11131E-03   -0.10952E-03  7488   0.205E-02 0.446E-04
CGA:  97    -0.343650363435E+03   -0.59702E-04   -0.59739E-04  7488   0.772E-03 0.981E-05
CGA:  98    -0.343650435536E+03   -0.72100E-04   -0.72143E-04  7488   0.157E-02-0.851E-06
CGA:  99    -0.343650571416E+03   -0.13588E-03   -0.13941E-03  7488   0.162E-02-0.817E-04
CGA: 100    -0.343650636294E+03   -0.64878E-04   -0.64787E-04  7488   0.743E-03-0.280E-04
CGA: 101    -0.343650655117E+03   -0.18823E-04   -0.18563E-04  7488   0.264E-03-0.968E-05
CGA: 102    -0.343650687240E+03   -0.32123E-04   -0.33132E-04  7488   0.743E-03-0.126E-04
CGA: 103    -0.343650731098E+03   -0.43858E-04   -0.44172E-04  7488   0.572E-03-0.242E-04
CGA: 104    -0.343650744656E+03   -0.13559E-04   -0.13439E-04  7488   0.137E-03-0.714E-05
CGA: 105    -0.343650753045E+03   -0.83883E-05   -0.84324E-05  7488   0.134E-03-0.395E-05
CGA: 106    -0.343650768851E+03   -0.15806E-04   -0.16134E-04  7488   0.212E-03-0.494E-05
CGA: 107    -0.343650776160E+03   -0.73094E-05   -0.73031E-05  7488   0.829E-04-0.944E-06
   1 F= -.34365078E+03 E0= -.34362928E+03  d E =-.343651E+03  mag=    20.0000
       N       E                     dE             d eps       ncg     rms          ort
SDA:   1    -0.343643143916E+03    0.76249E-02    0.00000E+00  7488   0.237E+00 0.000E+00
CGA:   2    -0.343647126691E+03   -0.39828E-02   -0.39713E-02  7488   0.272E-01 0.516E-03
CGA:   3    -0.343648448127E+03   -0.13214E-02   -0.13213E-02  7488   0.294E-01-0.319E-04
CGA:   4    -0.343651511069E+03   -0.30629E-02   -0.30618E-02  7488   0.213E-01 0.215E-04
CGA:   5    -0.343652288072E+03   -0.77700E-03   -0.77721E-03  7488   0.118E-01 0.141E-05
CGA:   6    -0.343652696907E+03   -0.40884E-03   -0.40905E-03  7488   0.697E-02 0.521E-05
CGA:   7    -0.343653179942E+03   -0.48303E-03   -0.48313E-03  7488   0.371E-02-0.332E-05
CGA:   8    -0.343653363896E+03   -0.18395E-03   -0.18396E-03  7488   0.115E-02-0.468E-07
CGA:   9    -0.343653426098E+03   -0.62202E-04   -0.62207E-04  7488   0.103E-02-0.191E-05
CGA:  10    -0.343653457117E+03   -0.31020E-04   -0.31019E-04  7488   0.393E-03-0.221E-08
CGA:  11    -0.343653481224E+03   -0.24106E-04   -0.24105E-04  7488   0.304E-03 0.127E-06
CGA:  12    -0.343653499547E+03   -0.18323E-04   -0.18325E-04  7488   0.127E-03-0.178E-06
CGA:  13    -0.343653504766E+03   -0.52193E-05   -0.52118E-05  7488   0.682E-04-0.667E-06
   2 F= -.34365350E+03 E0= -.34363204E+03  d E =-.272861E-02  mag=    20.0000
       N       E                     dE             d eps       ncg     rms          ort
SDA:   1    -0.343462051436E+03    0.19145E+00    0.00000E+00  7488   0.138E+01 0.000E+00
CGA:   2    -0.343493274765E+03   -0.31223E-01   -0.31368E-01  7488   0.690E+00-0.328E-02
CGA:   3    -0.343580095433E+03   -0.86821E-01   -0.86868E-01  7488   0.109E+01-0.724E-03
CGA:   4    -0.343626874308E+03   -0.46779E-01   -0.46773E-01  7488   0.236E+00-0.129E-03
CGA:   5    -0.343638942382E+03   -0.12068E-01   -0.12068E-01  7488   0.325E+00 0.859E-04
CGA:   6    -0.343653668472E+03   -0.14726E-01   -0.14728E-01  7488   0.190E+00 0.217E-03
CGA:   7    -0.343660660192E+03   -0.69917E-02   -0.69660E-02  7488   0.309E-01-0.416E-04
CGA:   8    -0.343662367592E+03   -0.17074E-02   -0.17076E-02  7488   0.268E-01-0.231E-04
CGA:   9    -0.343663927380E+03   -0.15598E-02   -0.15595E-02  7488   0.226E-01 0.253E-04
CGA:  10    -0.343664522666E+03   -0.59529E-03   -0.59483E-03  7488   0.645E-02 0.286E-05
CGA:  11    -0.343665016495E+03   -0.49383E-03   -0.49466E-03  7488   0.361E-02-0.283E-04
CGA:  12    -0.343665175852E+03   -0.15936E-03   -0.15938E-03  7488   0.283E-02-0.458E-06
CGA:  13    -0.343665306859E+03   -0.13101E-03   -0.13101E-03  7488   0.307E-02-0.440E-06
CGA:  14    -0.343665463757E+03   -0.15690E-03   -0.15690E-03  7488   0.788E-03 0.124E-05
CGA:  15    -0.343665502638E+03   -0.38882E-04   -0.38885E-04  7488   0.411E-03 0.682E-06
CGA:  16    -0.343665524410E+03   -0.21772E-04   -0.21771E-04  7488   0.678E-03 0.266E-06
CGA:  17    -0.343665566346E+03   -0.41936E-04   -0.41940E-04  7488   0.359E-03-0.567E-06
CGA:  18    -0.343665579220E+03   -0.12873E-04   -0.12879E-04  7488   0.101E-03 0.769E-07
CGA:  19    -0.343665586857E+03   -0.76374E-05   -0.76373E-05  7488   0.204E-03-0.196E-06
   3 F= -.34366559E+03 E0= -.34364420E+03  d E =-.120821E-01  mag=    20.0000
       N       E                     dE             d eps       ncg     rms          ort
SDA:   1    -0.339009469834E+03    0.46561E+01    0.00000E+00  7488   0.132E+02 0.000E+00
CGA:   2    -0.340717455842E+03   -0.17080E+01   -0.16657E+01  7488   0.322E+02 0.673E+00
CGA:   3    -0.342329928476E+03   -0.16125E+01   -0.15809E+01  7488   0.202E+02-0.869E+00
CGA:   4    -0.342849001798E+03   -0.51907E+00   -0.51185E+00  7488   0.484E+01 0.170E+00
CGA:   5    -0.343232945578E+03   -0.38394E+00   -0.37765E+00  7488   0.620E+01 0.216E+00
CGA:   6    -0.343478806519E+03   -0.24586E+00   -0.24050E+00  7488   0.355E+01 0.400E-02
CGA:   7    -0.343574241526E+03   -0.95435E-01   -0.92823E-01  7488   0.740E+00 0.581E-01
CGA:   8    -0.343617511095E+03   -0.43270E-01   -0.43178E-01  7488   0.725E+00 0.117E-01
CGA:   9    -0.343643694962E+03   -0.26184E-01   -0.26241E-01  7488   0.550E+00 0.819E-04
CGA:  10    -0.343663910936E+03   -0.20216E-01   -0.20213E-01  7488   0.197E+00-0.190E-04
CGA:  11    -0.343674106564E+03   -0.10196E-01   -0.10195E-01  7488   0.146E+00 0.772E-03
CGA:  12    -0.343678598737E+03   -0.44922E-02   -0.44939E-02  7488   0.866E-01-0.431E-04
CGA:  13    -0.343682481597E+03   -0.38829E-02   -0.38848E-02  7488   0.500E-01 0.120E-03
CGA:  14    -0.343686030590E+03   -0.35490E-02   -0.35352E-02  7488   0.588E-01 0.520E-03
CGA:  15    -0.343687678689E+03   -0.16481E-02   -0.16483E-02  7488   0.225E-01-0.289E-04
CGA:  16    -0.343688515427E+03   -0.83674E-03   -0.83738E-03  7488   0.759E-02-0.406E-05
CGA:  17    -0.343689253537E+03   -0.73811E-03   -0.73512E-03  7488   0.178E-01 0.618E-04
CGA:  18    -0.343689873171E+03   -0.61963E-03   -0.61978E-03  7488   0.865E-02-0.712E-06
CGA:  19    -0.343690183838E+03   -0.31067E-03   -0.31096E-03  7488   0.248E-02 0.931E-06
CGA:  20    -0.343690366637E+03   -0.18280E-03   -0.18250E-03  7488   0.408E-02 0.115E-04
CGA:  21    -0.343690571564E+03   -0.20493E-03   -0.20495E-03  7488   0.461E-02 0.122E-04
CGA:  22    -0.343690766390E+03   -0.19483E-03   -0.19492E-03  7488   0.174E-02 0.860E-05
CGA:  23    -0.343690874553E+03   -0.10816E-03   -0.10807E-03  7488   0.154E-02 0.644E-05
CGA:  24    -0.343690938809E+03   -0.64256E-04   -0.64291E-04  7488   0.143E-02 0.250E-05
CGA:  25    -0.343691003442E+03   -0.64633E-04   -0.64632E-04  7488   0.105E-02 0.120E-05
CGA:  26    -0.343691088607E+03   -0.85165E-04   -0.84911E-04  7488   0.871E-03 0.768E-05
CGA:  27    -0.343691125416E+03   -0.36809E-04   -0.36822E-04  7488   0.577E-03 0.787E-06
CGA:  28    -0.343691144099E+03   -0.18683E-04   -0.18674E-04  7488   0.323E-03 0.256E-06
CGA:  29    -0.343691176535E+03   -0.32436E-04   -0.32342E-04  7488   0.558E-03 0.180E-05
CGA:  30    -0.343691208192E+03   -0.31658E-04   -0.31656E-04  7488   0.456E-03-0.124E-07
CGA:  31    -0.343691220430E+03   -0.12238E-04   -0.12211E-04  7488   0.155E-03-0.204E-06
SDA:  32    -0.343691233281E+03   -0.12851E-04   -0.12896E-04  7488   0.229E-03-0.158E-05
CGA:  33    -0.343691240083E+03   -0.68019E-05   -0.68022E-05  7488   0.595E-04-0.108E-06
CGA:  34    -0.343691252627E+03   -0.12544E-04   -0.12811E-04  7488   0.400E-03-0.171E-05
CGA:  35    -0.343691267808E+03   -0.15180E-04   -0.15126E-04  7488   0.148E-03-0.275E-05
CGA:  36    -0.343691272896E+03   -0.50882E-05   -0.50549E-05  7488   0.344E-04-0.132E-05
   4 F= -.34369127E+03 E0= -.34367033E+03  d E =-.256860E-01  mag=    20.0000
       N       E                     dE             d eps       ncg     rms          ort
SDA:   1    -0.342898691673E+03    0.79258E+00    0.00000E+00  7488   0.344E+01 0.000E+00
CGA:   2    -0.343025159312E+03   -0.12647E+00   -0.12638E+00  7488   0.385E+01-0.451E-03
CGA:   3    -0.343349887083E+03   -0.32473E+00   -0.32493E+00  7488   0.554E+01-0.617E-02
CGA:   4    -0.343548444030E+03   -0.19856E+00   -0.19552E+00  7488   0.949E+00 0.259E-01
CGA:   5    -0.343588328410E+03   -0.39884E-01   -0.39934E-01  7488   0.116E+01 0.517E-03
CGA:   6    -0.343654079810E+03   -0.65751E-01   -0.65750E-01  7488   0.595E+00-0.382E-03
CGA:   7    -0.343679297625E+03   -0.25218E-01   -0.25172E-01  7488   0.117E+00-0.330E-03
CGA:   8    -0.343685605239E+03   -0.63076E-02   -0.63020E-02  7488   0.106E+00-0.687E-03
CGA:   9    -0.343690901490E+03   -0.52963E-02   -0.52985E-02  7488   0.104E+00 0.111E-03
CGA:  10    -0.343694614347E+03   -0.37129E-02   -0.37170E-02  7488   0.270E-01-0.395E-04
CGA:  11    -0.343695661681E+03   -0.10473E-02   -0.10475E-02  7488   0.132E-01-0.107E-04
CGA:  12    -0.343696334895E+03   -0.67321E-03   -0.67324E-03  7488   0.199E-01 0.532E-06
CGA:  13    -0.343697448106E+03   -0.11132E-02   -0.11132E-02  7488   0.594E-02 0.878E-06
CGA:  14    -0.343697707025E+03   -0.25892E-03   -0.25897E-03  7488   0.240E-02-0.296E-05
CGA:  15    -0.343697862308E+03   -0.15528E-03   -0.15532E-03  7488   0.330E-02-0.432E-05
CGA:  16    -0.343697980225E+03   -0.11792E-03   -0.11796E-03  7488   0.149E-02-0.287E-05
CGA:  17    -0.343698105618E+03   -0.12539E-03   -0.12540E-03  7488   0.159E-02-0.675E-06
CGA:  18    -0.343698155199E+03   -0.49581E-04   -0.49607E-04  7488   0.649E-03-0.200E-05
CGA:  19    -0.343698178599E+03   -0.23400E-04   -0.23420E-04  7488   0.367E-03 0.814E-07
CGA:  20    -0.343698217466E+03   -0.38867E-04   -0.38665E-04  7488   0.561E-03 0.338E-05
CGA:  21    -0.343698251961E+03   -0.34494E-04   -0.34479E-04  7488   0.528E-03 0.258E-05
CGA:  22    -0.343698267483E+03   -0.15522E-04   -0.15550E-04  7488   0.128E-03 0.297E-06
CGA:  23    -0.343698275146E+03   -0.76636E-05   -0.76627E-05  7488   0.170E-03-0.195E-06
CGA:  24    -0.343698291064E+03   -0.15917E-04   -0.15900E-04  7488   0.272E-03 0.218E-06
CGA:  25    -0.343698297949E+03   -0.68853E-05   -0.69011E-05  7488   0.581E-04 0.280E-06
   5 F= -.34369830E+03 E0= -.34367741E+03  d E =-.702505E-02  mag=    20.0000
       N       E                     dE             d eps       ncg     rms          ort
SDA:   1    -0.343112851255E+03    0.58544E+00    0.00000E+00  7488   0.194E+01 0.000E+00
CGA:   2    -0.343238683024E+03   -0.12583E+00   -0.12572E+00  7488   0.407E+01 0.841E-02
CGA:   3    -0.343476433363E+03   -0.23775E+00   -0.23774E+00  7488   0.399E+01 0.390E-02
CGA:   4    -0.343599534904E+03   -0.12310E+00   -0.12202E+00  7488   0.554E+00 0.127E-01
CGA:   5    -0.343640398507E+03   -0.40864E-01   -0.40872E-01  7488   0.901E+00-0.237E-03
CGA:   6    -0.343679497351E+03   -0.39099E-01   -0.39128E-01  7488   0.483E+00 0.566E-03
CGA:   7    -0.343692956850E+03   -0.13459E-01   -0.13501E-01  7488   0.597E-01-0.780E-03
CGA:   8    -0.343698544526E+03   -0.55877E-02   -0.56087E-02  7488   0.768E-01-0.488E-03
CGA:   9    -0.343701877884E+03   -0.33334E-02   -0.33347E-02  7488   0.562E-01 0.223E-04
CGA:  10    -0.343703459527E+03   -0.15816E-02   -0.15862E-02  7488   0.151E-01-0.887E-04
CGA:  11    -0.343704170718E+03   -0.71119E-03   -0.71135E-03  7488   0.906E-02 0.473E-05
CGA:  12    -0.343705036079E+03   -0.86536E-03   -0.86553E-03  7488   0.874E-02-0.422E-05
CGA:  13    -0.343705315442E+03   -0.27936E-03   -0.27932E-03  7488   0.435E-02-0.609E-05
CGA:  14    -0.343705488350E+03   -0.17291E-03   -0.17280E-03  7488   0.203E-02-0.592E-05
CGA:  15    -0.343705609858E+03   -0.12151E-03   -0.12152E-03  7488   0.147E-02-0.194E-05
CGA:  16    -0.343705664624E+03   -0.54765E-04   -0.54781E-04  7488   0.141E-02-0.316E-06
CGA:  17    -0.343705763426E+03   -0.98802E-04   -0.98782E-04  7488   0.111E-02 0.642E-06
CGA:  18    -0.343705806706E+03   -0.43280E-04   -0.43271E-04  7488   0.212E-03-0.745E-06
CGA:  19    -0.343705827531E+03   -0.20825E-04   -0.20739E-04  7488   0.700E-03 0.173E-05
CGA:  20    -0.343705863050E+03   -0.35520E-04   -0.35538E-04  7488   0.464E-03 0.283E-05
CGA:  21    -0.343705880497E+03   -0.17447E-04   -0.17472E-04  7488   0.130E-03 0.111E-05
CGA:  22    -0.343705887487E+03   -0.69894E-05   -0.69898E-05  7488   0.167E-03 0.147E-06
   6 F= -.34370589E+03 E0= -.34368499E+03  d E =-.758954E-02  mag=    20.0000
       N       E                     dE             d eps       ncg     rms          ort
SDA:   1    -0.326409542572E+03    0.17296E+02    0.00000E+00  7488   0.645E+02 0.000E+00
CGA:   2    -0.328854349417E+03   -0.24448E+01   -0.24154E+01  7488   0.971E+02-0.275E-01
CGA:   3    -0.337037082686E+03   -0.81827E+01   -0.86442E+01  7488   0.156E+03-0.190E+02
CGA:   4    -0.339962249272E+03   -0.29252E+01   -0.31478E+01  7488   0.636E+02-0.810E+01
CGA:   5    -0.340564436822E+03   -0.60219E+00   -0.72839E+00  7488   0.263E+02-0.107E+02
CGA:   6    -0.341333115674E+03   -0.76868E+00   -0.76931E+00  7488   0.322E+02-0.883E-02
CGA:   7    -0.342330816150E+03   -0.99770E+00   -0.98309E+00  7488   0.290E+02 0.984E-01
CGA:   8    -0.342810335987E+03   -0.47952E+00   -0.51287E+00  7488   0.169E+02-0.174E+01
CGA:   9    -0.343084669623E+03   -0.27433E+00   -0.26766E+00  7488   0.460E+01 0.258E+00
CGA:  10    -0.343223931859E+03   -0.13926E+00   -0.13750E+00  7488   0.505E+01-0.560E-03
CGA:  11    -0.343303844944E+03   -0.79913E-01   -0.82342E-01  7488   0.320E+01-0.122E+00
CGA:  12    -0.343447078132E+03   -0.14323E+00   -0.14305E+00  7488   0.323E+01 0.610E-01
CGA:  13    -0.343518699162E+03   -0.71621E-01   -0.72273E-01  7488   0.280E+01-0.161E-01
CGA:  14    -0.343574585093E+03   -0.55886E-01   -0.60075E-01  7488   0.120E+01-0.998E-01
CGA:  15    -0.343601822558E+03   -0.27237E-01   -0.27812E-01  7488   0.552E+00-0.696E-02
CGA:  16    -0.343623780794E+03   -0.21958E-01   -0.21959E-01  7488   0.112E+01 0.356E-03
CGA:  17    -0.343656957205E+03   -0.33176E-01   -0.34699E-01  7488   0.750E+00 0.297E-01
CGA:  18    -0.343681158798E+03   -0.24202E-01   -0.24605E-01  7488   0.181E+00 0.121E-01
CGA:  19    -0.343687906144E+03   -0.67473E-02   -0.67399E-02  7488   0.233E+00-0.877E-03
CGA:  20    -0.343695669487E+03   -0.77633E-02   -0.79058E-02  7488   0.129E+00 0.788E-02
CGA:  21    -0.343700345213E+03   -0.46757E-02   -0.46686E-02  7488   0.119E+00-0.526E-03
CGA:  22    -0.343706908010E+03   -0.65628E-02   -0.65435E-02  7488   0.864E-01 0.762E-03
CGA:  23    -0.343709159901E+03   -0.22519E-02   -0.23077E-02  7488   0.457E-01 0.286E-04
CGA:  24    -0.343710678993E+03   -0.15191E-02   -0.15182E-02  7488   0.228E-01-0.401E-04
CGA:  25    -0.343712537247E+03   -0.18583E-02   -0.18308E-02  7488   0.243E-01 0.647E-03
CGA:  26    -0.343713644814E+03   -0.11076E-02   -0.11065E-02  7488   0.249E-01 0.218E-03
CGA:  27    -0.343714661433E+03   -0.10166E-02   -0.10164E-02  7488   0.111E-01-0.689E-04
CGA:  28    -0.343714981163E+03   -0.31973E-03   -0.32111E-03  7488   0.717E-02 0.134E-04
CGA:  29    -0.343715383491E+03   -0.40233E-03   -0.40259E-03  7488   0.737E-02-0.105E-04
CGA:  30    -0.343715920143E+03   -0.53665E-03   -0.53494E-03  7488   0.552E-02 0.520E-04
CGA:  31    -0.343716097182E+03   -0.17704E-03   -0.17730E-03  7488   0.324E-02 0.801E-05
SDA:  32    -0.343716247753E+03   -0.15057E-03   -0.15057E-03  7488   0.303E-02 0.204E-05
CGA:  33    -0.343716308134E+03   -0.60381E-04   -0.60411E-04  7488   0.115E-02-0.153E-05
CGA:  34    -0.343716383719E+03   -0.75585E-04   -0.75463E-04  7488   0.199E-02 0.379E-05
CGA:  35    -0.343716583734E+03   -0.20002E-03   -0.19919E-03  7488   0.244E-02 0.139E-04
CGA:  36    -0.343716666557E+03   -0.82823E-04   -0.82893E-04  7488   0.933E-03 0.384E-05
CGA:  37    -0.343716699968E+03   -0.33410E-04   -0.33407E-04  7488   0.511E-03-0.122E-05
CGA:  38    -0.343716765299E+03   -0.65332E-04   -0.65875E-04  7488   0.850E-03-0.717E-05
CGA:  39    -0.343716840170E+03   -0.74870E-04   -0.74978E-04  7488   0.521E-03-0.321E-05
CGA:  40    -0.343716869814E+03   -0.29644E-04   -0.29621E-04  7488   0.666E-03 0.271E-05
CGA:  41    -0.343716895080E+03   -0.25267E-04   -0.25317E-04  7488   0.609E-03 0.336E-05
CGA:  42    -0.343716928869E+03   -0.33788E-04   -0.33766E-04  7488   0.338E-03 0.453E-05
CGA:  43    -0.343716949721E+03   -0.20852E-04   -0.20807E-04  7488   0.451E-03 0.381E-05
CGA:  44    -0.343716964227E+03   -0.14506E-04   -0.14559E-04  7488   0.764E-04 0.217E-05
CGA:  45    -0.343716976884E+03   -0.12657E-04   -0.12726E-04  7488   0.323E-03-0.110E-05
CGA:  46    -0.343716989790E+03   -0.12905E-04   -0.12877E-04  7488   0.177E-03-0.209E-05
CGA:  47    -0.343716993633E+03   -0.38437E-05   -0.38263E-05  7488   0.215E-04-0.918E-06
   7 F= -.34371699E+03 E0= -.34369613E+03  d E =-.111061E-01  mag=    20.0000
       N       E                     dE             d eps       ncg     rms          ort
SDA:   1    -0.318395617784E+03    0.25321E+02    0.00000E+00  7488   0.109E+03 0.000E+00
CGA:   2    -0.321771734794E+03   -0.33761E+01   -0.34395E+01  7488   0.129E+03-0.233E+01
CGA:   3    -0.331541055889E+03   -0.97693E+01   -0.12857E+02  7488   0.447E+03-0.854E+02
CGA:   4    -0.333323138400E+03   -0.17821E+01   -0.96594E+01  7488   0.406E+03-0.242E+03
CGA:   5    -0.338101358458E+03   -0.47782E+01   -0.44020E+01  7488   0.299E+02-0.806E+02
CGA:   6    -0.338870685683E+03   -0.76933E+00   -0.80640E+00  7488   0.353E+02-0.345E+00
CGA:   7    -0.340258636701E+03   -0.13880E+01   -0.13778E+01  7488   0.529E+02-0.156E+00
CGA:   8    -0.341873221759E+03   -0.16146E+01   -0.17638E+01  7488   0.279E+02-0.792E+00
CGA:   9    -0.342421164156E+03   -0.54794E+00   -0.52878E+00  7488   0.930E+01 0.275E+00
CGA:  10    -0.342812074305E+03   -0.39091E+00   -0.39913E+00  7488   0.117E+02 0.293E+00
CGA:  11    -0.343197640173E+03   -0.38557E+00   -0.38710E+00  7488   0.856E+01-0.162E-01
CGA:  12    -0.343463436461E+03   -0.26580E+00   -0.27730E+00  7488   0.405E+01-0.220E-01
CGA:  13    -0.343563891151E+03   -0.10045E+00   -0.10076E+00  7488   0.162E+01-0.105E-01
CGA:  14    -0.343609211436E+03   -0.45320E-01   -0.46891E-01  7488   0.669E+00-0.105E-01
CGA:  15    -0.343635524676E+03   -0.26313E-01   -0.26359E-01  7488   0.818E+00 0.210E-02
CGA:  16    -0.343669851682E+03   -0.34327E-01   -0.34526E-01  7488   0.450E+00 0.190E-01
CGA:  17    -0.343684019348E+03   -0.14168E-01   -0.14159E-01  7488   0.210E+00-0.883E-04
CGA:  18    -0.343690150794E+03   -0.61314E-02   -0.62711E-02  7488   0.124E+00-0.277E-04
CGA:  19    -0.343697957173E+03   -0.78064E-02   -0.78149E-02  7488   0.178E+00-0.360E-03
CGA:  20    -0.343704594389E+03   -0.66372E-02   -0.67080E-02  7488   0.123E+00 0.290E-02
CGA:  21    -0.343709443161E+03   -0.48488E-02   -0.48430E-02  7488   0.713E-01-0.300E-03
CGA:  22    -0.343712255649E+03   -0.28125E-02   -0.28216E-02  7488   0.549E-01 0.688E-03
CGA:  23    -0.343714365430E+03   -0.21098E-02   -0.21112E-02  7488   0.316E-01 0.948E-04
CGA:  24    -0.343716183947E+03   -0.18185E-02   -0.18080E-02  7488   0.523E-01 0.597E-03
CGA:  25    -0.343718655668E+03   -0.24717E-02   -0.24721E-02  7488   0.315E-01-0.119E-03
CGA:  26    -0.343719708102E+03   -0.10524E-02   -0.10547E-02  7488   0.138E-01 0.453E-04
CGA:  27    -0.343720234513E+03   -0.52641E-03   -0.52655E-03  7488   0.132E-01 0.130E-04
CGA:  28    -0.343721283827E+03   -0.10493E-02   -0.10429E-02  7488   0.196E-01 0.172E-03
CGA:  29    -0.343721928527E+03   -0.64470E-03   -0.64515E-03  7488   0.820E-02 0.135E-04
CGA:  30    -0.343722218055E+03   -0.28953E-03   -0.28966E-03  7488   0.423E-02 0.649E-05
CGA:  31    -0.343722424609E+03   -0.20655E-03   -0.20650E-03  7488   0.532E-02 0.119E-04
CGA:  32    -0.343722712846E+03   -0.28824E-03   -0.28804E-03  7488   0.463E-02 0.204E-04
CGA:  33    -0.343722897102E+03   -0.18426E-03   -0.18437E-03  7488   0.296E-02 0.159E-04
CGA:  34    -0.343723002182E+03   -0.10508E-03   -0.10510E-03  7488   0.174E-02 0.412E-05
SDA:  35    -0.343723104512E+03   -0.10233E-03   -0.10221E-03  7488   0.234E-02 0.741E-05
CGA:  36    -0.343723140039E+03   -0.35528E-04   -0.35528E-04  7488   0.498E-03-0.320E-05
CGA:  37    -0.343723207991E+03   -0.67952E-04   -0.68544E-04  7488   0.137E-02-0.750E-05
CGA:  38    -0.343723306103E+03   -0.98112E-04   -0.98319E-04  7488   0.165E-02-0.880E-05
CGA:  39    -0.343723372797E+03   -0.66693E-04   -0.66624E-04  7488   0.770E-03-0.588E-05
CGA:  40    -0.343723406010E+03   -0.33213E-04   -0.33201E-04  7488   0.552E-03-0.170E-05
CGA:  41    -0.343723452743E+03   -0.46733E-04   -0.46678E-04  7488   0.114E-02 0.114E-05
CGA:  42    -0.343723486060E+03   -0.33317E-04   -0.33384E-04  7488   0.643E-03 0.192E-05
CGA:  43    -0.343723517980E+03   -0.31920E-04   -0.31920E-04  7488   0.236E-03 0.523E-07
CGA:  44    -0.343723543849E+03   -0.25869E-04   -0.25830E-04  7488   0.201E-03 0.156E-06
CGA:  45    -0.343723560352E+03   -0.16503E-04   -0.16543E-04  7488   0.466E-03-0.174E-05
CGA:  46    -0.343723578911E+03   -0.18559E-04   -0.18561E-04  7488   0.253E-03-0.137E-05
CGA:  47    -0.343723585972E+03   -0.70611E-05   -0.70404E-05  7488   0.996E-04-0.724E-06
   8 F= -.34372359E+03 E0= -.34370285E+03  d E =-.659234E-02  mag=    20.0000
       N       E                     dE             d eps       ncg     rms          ort
SDA:   1    -0.329463151085E+03    0.14260E+02    0.00000E+00  7488   0.614E+02 0.000E+00
CGA:   2    -0.331359869861E+03   -0.18967E+01   -0.20448E+01  7488   0.762E+02-0.137E+01
CGA:   3    -0.337630043786E+03   -0.62702E+01   -0.65271E+01  7488   0.131E+03-0.793E+01
CGA:   4    -0.340894979900E+03   -0.32649E+01   -0.29583E+01  7488   0.266E+02 0.798E+01
CGA:   5    -0.341526999131E+03   -0.63202E+00   -0.68546E+00  7488   0.172E+02-0.142E+01
CGA:   6    -0.342266945799E+03   -0.73995E+00   -0.73575E+00  7488   0.315E+02-0.360E+00
CGA:   7    -0.343184778408E+03   -0.91783E+00   -0.90559E+00  7488   0.865E+01 0.179E+00
CGA:   8    -0.343388812606E+03   -0.20403E+00   -0.20823E+00  7488   0.267E+01-0.524E-01
CGA:   9    -0.343472688879E+03   -0.83876E-01   -0.83402E-01  7488   0.322E+01-0.195E-02
CGA:  10    -0.343585749162E+03   -0.11306E+00   -0.11396E+00  7488   0.169E+01 0.168E-01
CGA:  11    -0.343630275102E+03   -0.44526E-01   -0.46037E-01  7488   0.954E+00-0.129E-01
CGA:  12    -0.343684581918E+03   -0.54307E-01   -0.54225E-01  7488   0.958E+00 0.476E-02
CGA:  13    -0.343704333273E+03   -0.19751E-01   -0.20733E-01  7488   0.350E+00-0.232E-01
CGA:  14    -0.343715614410E+03   -0.11281E-01   -0.11308E-01  7488   0.167E+00 0.447E-03
CGA:  15    -0.343725037565E+03   -0.94232E-02   -0.94165E-02  7488   0.240E+00 0.385E-03
CGA:  16    -0.343738208659E+03   -0.13171E-01   -0.13063E-01  7488   0.709E-01 0.722E-02
CGA:  17    -0.343740200522E+03   -0.19919E-02   -0.19946E-02  7488   0.341E-01-0.254E-04
CGA:  18    -0.343741672829E+03   -0.14723E-02   -0.14729E-02  7488   0.468E-01 0.330E-03
CGA:  19    -0.343744369036E+03   -0.26962E-02   -0.26909E-02  7488   0.424E-01 0.301E-03
CGA:  20    -0.343745963674E+03   -0.15946E-02   -0.15958E-02  7488   0.163E-01 0.545E-04
CGA:  21    -0.343746664151E+03   -0.70048E-03   -0.70066E-03  7488   0.102E-01 0.617E-04
CGA:  22    -0.343747336325E+03   -0.67217E-03   -0.67094E-03  7488   0.109E-01 0.464E-04
CGA:  23    -0.343747883756E+03   -0.54743E-03   -0.54719E-03  7488   0.122E-01 0.318E-04
CGA:  24    -0.343748349470E+03   -0.46571E-03   -0.46649E-03  7488   0.926E-02 0.385E-04
CGA:  25    -0.343748756526E+03   -0.40706E-03   -0.40708E-03  7488   0.674E-02 0.126E-04
CGA:  26    -0.343748991815E+03   -0.23529E-03   -0.23565E-03  7488   0.207E-02 0.859E-05
CGA:  27    -0.343749159420E+03   -0.16761E-03   -0.16750E-03  7488   0.394E-02 0.164E-05
CGA:  28    -0.343749433619E+03   -0.27420E-03   -0.27370E-03  7488   0.355E-02 0.189E-04
CGA:  29    -0.343749528923E+03   -0.95304E-04   -0.95495E-04  7488   0.830E-03 0.269E-05
CGA:  30    -0.343749561361E+03   -0.32438E-04   -0.32467E-04  7488   0.113E-02 0.178E-05
CGA:  31    -0.343749654213E+03   -0.92852E-04   -0.92483E-04  7488   0.110E-02 0.969E-05
SDA:  32    -0.343749701698E+03   -0.47485E-04   -0.47510E-04  7488   0.629E-03 0.393E-05
CGA:  33    -0.343749716943E+03   -0.15244E-04   -0.15250E-04  7488   0.288E-03-0.594E-06
CGA:  34    -0.343749739110E+03   -0.22167E-04   -0.22177E-04  7488   0.325E-03-0.893E-06
CGA:  35    -0.343749751180E+03   -0.12070E-04   -0.12075E-04  7488   0.367E-03-0.378E-06
CGA:  36    -0.343749776562E+03   -0.25382E-04   -0.25384E-04  7488   0.546E-03-0.649E-06
CGA:  37    -0.343749804911E+03   -0.28349E-04   -0.28347E-04  7488   0.109E-03 0.170E-06
CGA:  38    -0.343749812236E+03   -0.73249E-05   -0.73239E-05  7488   0.123E-03-0.436E-06
CGA:  39    -0.343749828642E+03   -0.16406E-04   -0.16522E-04  7488   0.152E-03-0.180E-05
CGA:  40    -0.343749836480E+03   -0.78378E-05   -0.78373E-05  7488   0.645E-04-0.697E-06
   9 F= -.34374984E+03 E0= -.34372900E+03  d E =-.262505E-01  mag=    20.0000
       N       E                     dE             d eps       ncg     rms          ort
SDA:   1    -0.338185822447E+03    0.55640E+01    0.00000E+00  7488   0.398E+02 0.000E+00
CGA:   2    -0.339277717778E+03   -0.10919E+01   -0.11257E+01  7488   0.237E+02-0.153E+01
CGA:   3    -0.340337108908E+03   -0.10594E+01   -0.10587E+01  7488   0.307E+02-0.679E-01
CGA:   4    -0.342478104066E+03   -0.21410E+01   -0.21378E+01  7488   0.131E+02 0.622E-01
CGA:   5    -0.342886994031E+03   -0.40889E+00   -0.40058E+00  7488   0.594E+01 0.121E+00
CGA:   6    -0.343176394154E+03   -0.28940E+00   -0.28880E+00  7488   0.715E+01-0.898E-01
CGA:   7    -0.343565849044E+03   -0.38945E+00   -0.38931E+00  7488   0.166E+01 0.183E-01
CGA:   8    -0.343627748207E+03   -0.61899E-01   -0.62882E-01  7488   0.674E+00 0.119E-01
CGA:   9    -0.343655400502E+03   -0.27652E-01   -0.27650E-01  7488   0.794E+00 0.456E-04
CGA:  10    -0.343695061166E+03   -0.39661E-01   -0.39661E-01  7488   0.444E+00 0.440E-03
CGA:  11    -0.343709399431E+03   -0.14338E-01   -0.14402E-01  7488   0.173E+00-0.665E-04
CGA:  12    -0.343714088384E+03   -0.46890E-02   -0.47354E-02  7488   0.796E-01-0.558E-03
CGA:  13    -0.343721323298E+03   -0.72349E-02   -0.72434E-02  7488   0.113E+00-0.193E-03
CGA:  14    -0.343727088969E+03   -0.57657E-02   -0.57639E-02  7488   0.341E-01 0.972E-03
CGA:  15    -0.343727838732E+03   -0.74976E-03   -0.75146E-03  7488   0.147E-01-0.518E-04
CGA:  16    -0.343729006165E+03   -0.11674E-02   -0.11673E-02  7488   0.183E-01 0.144E-05
CGA:  17    -0.343730097046E+03   -0.10909E-02   -0.10908E-02  7488   0.146E-01 0.428E-05
CGA:  18    -0.343730530962E+03   -0.43392E-03   -0.43538E-03  7488   0.806E-02-0.707E-05
CGA:  19    -0.343730986708E+03   -0.45575E-03   -0.45555E-03  7488   0.397E-02 0.190E-04
CGA:  20    -0.343731124827E+03   -0.13812E-03   -0.13823E-03  7488   0.360E-02 0.205E-05
CGA:  21    -0.343731356726E+03   -0.23190E-03   -0.23166E-03  7488   0.462E-02 0.122E-04
CGA:  22    -0.343731706830E+03   -0.35010E-03   -0.34935E-03  7488   0.220E-02 0.255E-04
CGA:  23    -0.343731765522E+03   -0.58692E-04   -0.58761E-04  7488   0.115E-02 0.937E-06
CGA:  24    -0.343731822783E+03   -0.57260E-04   -0.57264E-04  7488   0.118E-02 0.509E-05
CGA:  25    -0.343731953249E+03   -0.13047E-03   -0.12944E-03  7488   0.120E-02 0.169E-04
CGA:  26    -0.343731996571E+03   -0.43322E-04   -0.43426E-04  7488   0.625E-03 0.476E-05
CGA:  27    -0.343732013457E+03   -0.16886E-04   -0.16925E-04  7488   0.249E-03 0.116E-05
CGA:  28    -0.343732039099E+03   -0.25642E-04   -0.25498E-04  7488   0.434E-03 0.240E-05
CGA:  29    -0.343732066095E+03   -0.26996E-04   -0.26975E-04  7488   0.315E-03 0.224E-05
CGA:  30    -0.343732074110E+03   -0.80151E-05   -0.80496E-05  7488   0.138E-03 0.667E-06
  10 F= -.34373207E+03 E0= -.34371118E+03  d E =0.177624E-01  mag=    20.0000
       N       E                     dE             d eps       ncg     rms          ort
SDA:   1    -0.341169061945E+03    0.25630E+01    0.00000E+00  7488   0.961E+01 0.000E+00
CGA:   2    -0.341699243354E+03   -0.53018E+00   -0.53007E+00  7488   0.137E+02 0.338E-01
CGA:   3    -0.342735705667E+03   -0.10365E+01   -0.10461E+01  7488   0.223E+02-0.352E+00
CGA:   4    -0.343230831822E+03   -0.49513E+00   -0.48061E+00  7488   0.275E+01 0.695E+00
CGA:   5    -0.343404946081E+03   -0.17411E+00   -0.17377E+00  7488   0.525E+01 0.253E-01
CGA:   6    -0.343611377754E+03   -0.20643E+00   -0.20620E+00  7488   0.207E+01-0.116E-02
CGA:   7    -0.343676595176E+03   -0.65217E-01   -0.64712E-01  7488   0.963E+00 0.480E-02
CGA:   8    -0.343701705569E+03   -0.25110E-01   -0.25046E-01  7488   0.459E+00 0.138E-02
CGA:   9    -0.343725843139E+03   -0.24138E-01   -0.24125E-01  7488   0.237E+00 0.291E-02
CGA:  10    -0.343739086099E+03   -0.13243E-01   -0.13230E-01  7488   0.269E+00 0.146E-02
CGA:  11    -0.343745836855E+03   -0.67508E-02   -0.67673E-02  7488   0.108E+00-0.381E-03
CGA:  12    -0.343751429855E+03   -0.55930E-02   -0.55934E-02  7488   0.559E-01-0.104E-03
CGA:  13    -0.343753384468E+03   -0.19546E-02   -0.19550E-02  7488   0.413E-01 0.351E-05
CGA:  14    -0.343755382183E+03   -0.19977E-02   -0.19978E-02  7488   0.313E-01 0.104E-03
CGA:  15    -0.343757182341E+03   -0.18002E-02   -0.17975E-02  7488   0.289E-01 0.198E-03
CGA:  16    -0.343757885791E+03   -0.70345E-03   -0.70499E-03  7488   0.814E-02-0.263E-04
CGA:  17    -0.343758156440E+03   -0.27065E-03   -0.27061E-03  7488   0.389E-02 0.127E-05
CGA:  18    -0.343758856565E+03   -0.70013E-03   -0.69744E-03  7488   0.542E-02 0.222E-04
CGA:  19    -0.343758991297E+03   -0.13473E-03   -0.13484E-03  7488   0.191E-02-0.300E-05
CGA:  20    -0.343759092882E+03   -0.10158E-03   -0.10158E-03  7488   0.171E-02 0.256E-05
CGA:  21    -0.343759186142E+03   -0.93260E-04   -0.93249E-04  7488   0.229E-02 0.325E-05
CGA:  22    -0.343759266067E+03   -0.79925E-04   -0.80026E-04  7488   0.151E-02 0.301E-05
CGA:  23    -0.343759383147E+03   -0.11708E-03   -0.11713E-03  7488   0.811E-03-0.211E-05
CGA:  24    -0.343759428404E+03   -0.45257E-04   -0.45259E-04  7488   0.481E-03-0.145E-05
CGA:  25    -0.343759451593E+03   -0.23189E-04   -0.23186E-04  7488   0.500E-03-0.108E-05
CGA:  26    -0.343759479183E+03   -0.27589E-04   -0.27594E-04  7488   0.684E-03-0.245E-05
CGA:  27    -0.343759516197E+03   -0.37014E-04   -0.37018E-04  7488   0.345E-03-0.333E-05
CGA:  28    -0.343759524022E+03   -0.78248E-05   -0.78011E-05  7488   0.121E-03-0.106E-05
  11 F= -.34375952E+03 E0= -.34373868E+03  d E =-.274499E-01  mag=    20.0000
       N       E                     dE             d eps       ncg     rms          ort
SDA:   1    -0.343632017915E+03    0.12750E+00    0.00000E+00  7488   0.768E+00 0.000E+00
CGA:   2    -0.343654437815E+03   -0.22420E-01   -0.22341E-01  7488   0.562E+00 0.945E-03
CGA:   3    -0.343684088161E+03   -0.29650E-01   -0.29649E-01  7488   0.779E+00 0.423E-03
CGA:   4    -0.343732162388E+03   -0.48074E-01   -0.48037E-01  7488   0.365E+00 0.233E-02
CGA:   5    -0.343742864132E+03   -0.10702E-01   -0.10766E-01  7488   0.138E+00-0.562E-03
CGA:   6    -0.343749410135E+03   -0.65460E-02   -0.65482E-02  7488   0.119E+00 0.375E-03
CGA:   7    -0.343757063318E+03   -0.76532E-02   -0.76537E-02  7488   0.576E-01-0.839E-05
CGA:   8    -0.343758988178E+03   -0.19249E-02   -0.19224E-02  7488   0.307E-01 0.161E-04
CGA:   9    -0.343759756677E+03   -0.76850E-03   -0.76776E-03  7488   0.987E-02 0.246E-04
CGA:  10    -0.343760567948E+03   -0.81127E-03   -0.81120E-03  7488   0.106E-01 0.164E-05
CGA:  11    -0.343761006302E+03   -0.43835E-03   -0.43826E-03  7488   0.544E-02-0.510E-05
CGA:  12    -0.343761171070E+03   -0.16477E-03   -0.16467E-03  7488   0.162E-02-0.326E-06
CGA:  13    -0.343761330069E+03   -0.15900E-03   -0.15896E-03  7488   0.126E-02 0.901E-06
CGA:  14    -0.343761388703E+03   -0.58634E-04   -0.58649E-04  7488   0.135E-02 0.244E-05
CGA:  15    -0.343761437944E+03   -0.49241E-04   -0.49281E-04  7488   0.809E-03 0.184E-05
CGA:  16    -0.343761467145E+03   -0.29200E-04   -0.29234E-04  7488   0.233E-03 0.216E-05
CGA:  17    -0.343761475608E+03   -0.84636E-05   -0.84667E-05  7488   0.195E-03 0.171E-06
CGA:  18    -0.343761492552E+03   -0.16944E-04   -0.16955E-04  7488   0.244E-03-0.338E-06
CGA:  19    -0.343761503690E+03   -0.11138E-04   -0.11136E-04  7488   0.663E-04-0.524E-06
CGA:  20    -0.343761507122E+03   -0.34322E-05   -0.34319E-05  7488   0.447E-04 0.199E-06
  12 F= -.34376151E+03 E0= -.34374067E+03  d E =-.198310E-02  mag=    20.0000
       N       E                     dE             d eps       ncg     rms          ort
SDA:   1    -0.341127354742E+03    0.26341E+01    0.00000E+00  7488   0.772E+01 0.000E+00
CGA:   2    -0.341719011878E+03   -0.59166E+00   -0.59215E+00  7488   0.241E+02 0.646E-03
CGA:   3    -0.342950161308E+03   -0.12311E+01   -0.12308E+01  7488   0.132E+02-0.269E+00
CGA:   4    -0.343302844462E+03   -0.35268E+00   -0.35944E+00  7488   0.302E+01-0.111E+00
CGA:   5    -0.343438002720E+03   -0.13516E+00   -0.13530E+00  7488   0.363E+01 0.109E-01
CGA:   6    -0.343646601152E+03   -0.20860E+00   -0.20879E+00  7488   0.164E+01-0.173E-01
CGA:   7    -0.343706467706E+03   -0.59867E-01   -0.59511E-01  7488   0.422E+00-0.284E-02
CGA:   8    -0.343721640568E+03   -0.15173E-01   -0.15184E-01  7488   0.421E+00 0.124E-03
CGA:   9    -0.343739288134E+03   -0.17648E-01   -0.17651E-01  7488   0.251E+00 0.196E-03
CGA:  10    -0.343753922005E+03   -0.14634E-01   -0.14611E-01  7488   0.128E+00 0.162E-02
CGA:  11    -0.343757435026E+03   -0.35130E-02   -0.35136E-02  7488   0.470E-01 0.119E-04
CGA:  12    -0.343760004117E+03   -0.25691E-02   -0.25682E-02  7488   0.426E-01 0.857E-04
CGA:  13    -0.343762741509E+03   -0.27374E-02   -0.27364E-02  7488   0.465E-01 0.432E-04
CGA:  14    -0.343763832277E+03   -0.10908E-02   -0.10947E-02  7488   0.119E-01-0.954E-04
CGA:  15    -0.343764548399E+03   -0.71612E-03   -0.71549E-03  7488   0.859E-02 0.387E-04
CGA:  16    -0.343764887583E+03   -0.33918E-03   -0.33925E-03  7488   0.503E-02 0.139E-05
CGA:  17    -0.343765139157E+03   -0.25157E-03   -0.25155E-03  7488   0.574E-02 0.395E-05
CGA:  18    -0.343765499182E+03   -0.36003E-03   -0.35979E-03  7488   0.357E-02 0.105E-04
CGA:  19    -0.343765587455E+03   -0.88273E-04   -0.88414E-04  7488   0.129E-02-0.547E-06
CGA:  20    -0.343765645353E+03   -0.57898E-04   -0.57907E-04  7488   0.107E-02 0.182E-05
CGA:  21    -0.343765758454E+03   -0.11310E-03   -0.11284E-03  7488   0.162E-02 0.375E-05
CGA:  22    -0.343765815086E+03   -0.56632E-04   -0.56703E-04  7488   0.885E-03 0.138E-05
CGA:  23    -0.343765850533E+03   -0.35448E-04   -0.35466E-04  7488   0.296E-03 0.164E-05
CGA:  24    -0.343765863581E+03   -0.13048E-04   -0.13053E-04  7488   0.465E-03 0.141E-06
CGA:  25    -0.343765899744E+03   -0.36162E-04   -0.36072E-04  7488   0.375E-03 0.293E-05
CGA:  26    -0.343765913180E+03   -0.13437E-04   -0.13459E-04  7488   0.113E-03 0.127E-05
CGA:  27    -0.343765919409E+03   -0.62285E-05   -0.62205E-05  7488   0.146E-03 0.123E-05
  13 F= -.34376592E+03 E0= -.34374515E+03  d E =-.441229E-02  mag=    20.0000
       N       E                     dE             d eps       ncg     rms          ort
SDA:   1    -0.340512524064E+03    0.32534E+01    0.00000E+00  7488   0.183E+02 0.000E+00
CGA:   2    -0.340934500092E+03   -0.42198E+00   -0.42636E+00  7488   0.126E+02-0.333E+00
CGA:   3    -0.342659199893E+03   -0.17247E+01   -0.17220E+01  7488   0.135E+02-0.356E-01
CGA:   4    -0.343155966795E+03   -0.49677E+00   -0.47857E+00  7488   0.336E+01 0.116E+00
CGA:   5    -0.343441113668E+03   -0.28515E+00   -0.28833E+00  7488   0.504E+01-0.892E-01
CGA:   6    -0.343614243837E+03   -0.17313E+00   -0.17520E+00  7488   0.253E+01 0.244E-02
CGA:   7    -0.343677625827E+03   -0.63382E-01   -0.63625E-01  7488   0.561E+00-0.622E-02
CGA:   8    -0.343708551612E+03   -0.30926E-01   -0.30901E-01  7488   0.516E+00 0.376E-02
CGA:   9    -0.343726373589E+03   -0.17822E-01   -0.17845E-01  7488   0.337E+00 0.467E-04
CGA:  10    -0.343742006263E+03   -0.15633E-01   -0.15646E-01  7488   0.169E+00 0.130E-02
CGA:  11    -0.343749222045E+03   -0.72158E-02   -0.72132E-02  7488   0.949E-01-0.120E-03
CGA:  12    -0.343752521623E+03   -0.32996E-02   -0.33094E-02  7488   0.646E-01 0.410E-04
CGA:  13    -0.343755127091E+03   -0.26055E-02   -0.26074E-02  7488   0.365E-01 0.567E-04
CGA:  14    -0.343757522735E+03   -0.23956E-02   -0.23909E-02  7488   0.320E-01 0.211E-03
CGA:  15    -0.343758900483E+03   -0.13777E-02   -0.13782E-02  7488   0.176E-01 0.198E-04
CGA:  16    -0.343759325379E+03   -0.42490E-03   -0.42641E-03  7488   0.487E-02-0.366E-04
CGA:  17    -0.343759688575E+03   -0.36320E-03   -0.36268E-03  7488   0.748E-02 0.140E-04
CGA:  18    -0.343760223740E+03   -0.53516E-03   -0.53406E-03  7488   0.615E-02 0.397E-04
CGA:  19    -0.343760359614E+03   -0.13587E-03   -0.13608E-03  7488   0.129E-02-0.189E-05
CGA:  20    -0.343760447851E+03   -0.88237E-04   -0.88095E-04  7488   0.190E-02 0.495E-05
CGA:  21    -0.343760563159E+03   -0.11531E-03   -0.11520E-03  7488   0.180E-02 0.728E-05
CGA:  22    -0.343760629448E+03   -0.66290E-04   -0.66383E-04  7488   0.132E-02 0.259E-05
CGA:  23    -0.343760699057E+03   -0.69609E-04   -0.69601E-04  7488   0.593E-03 0.257E-05
CGA:  24    -0.343760723998E+03   -0.24941E-04   -0.24958E-04  7488   0.449E-03 0.752E-06
CGA:  25    -0.343760742303E+03   -0.18306E-04   -0.18325E-04  7488   0.386E-03 0.124E-05
CGA:  26    -0.343760767541E+03   -0.25238E-04   -0.25192E-04  7488   0.355E-03 0.206E-05
CGA:  27    -0.343760788004E+03   -0.20463E-04   -0.20446E-04  7488   0.206E-03 0.167E-05
CGA:  28    -0.343760792886E+03   -0.48814E-05   -0.48982E-05  7488   0.683E-04-0.740E-07
  14 F= -.34376079E+03 E0= -.34373991E+03  d E =0.512652E-02  mag=    20.0000
       N       E                     dE             d eps       ncg     rms          ort
SDA:   1    -0.343012274897E+03    0.74851E+00    0.00000E+00  7488   0.453E+01 0.000E+00
CGA:   2    -0.343131121435E+03   -0.11885E+00   -0.11937E+00  7488   0.311E+01-0.243E-01
CGA:   3    -0.343345415864E+03   -0.21429E+00   -0.21475E+00  7488   0.513E+01-0.187E-01
CGA:   4    -0.343608782533E+03   -0.26337E+00   -0.26325E+00  7488   0.105E+01 0.441E-01
CGA:   5    -0.343671416449E+03   -0.62634E-01   -0.62631E-01  7488   0.899E+00 0.228E-03
CGA:   6    -0.343714773510E+03   -0.43357E-01   -0.43346E-01  7488   0.106E+01-0.190E-02
CGA:   7    -0.343746582218E+03   -0.31809E-01   -0.31808E-01  7488   0.211E+00 0.141E-03
CGA:   8    -0.343755085313E+03   -0.85031E-02   -0.84874E-02  7488   0.106E+00-0.435E-03
CGA:   9    -0.343759092799E+03   -0.40075E-02   -0.40067E-02  7488   0.919E-01-0.290E-05
CGA:  10    -0.343765108050E+03   -0.60153E-02   -0.60198E-02  7488   0.447E-01-0.198E-03
CGA:  11    -0.343766858243E+03   -0.17502E-02   -0.17530E-02  7488   0.119E-01 0.737E-04
CGA:  12    -0.343767388088E+03   -0.52985E-03   -0.52990E-03  7488   0.184E-01 0.874E-05
CGA:  13    -0.343768379370E+03   -0.99128E-03   -0.99121E-03  7488   0.115E-01 0.974E-05
CGA:  14    -0.343768894175E+03   -0.51480E-03   -0.51489E-03  7488   0.290E-02 0.492E-05
CGA:  15    -0.343769091672E+03   -0.19750E-03   -0.19748E-03  7488   0.218E-02 0.958E-06
CGA:  16    -0.343769178670E+03   -0.86998E-04   -0.87027E-04  7488   0.160E-02 0.186E-05
CGA:  17    -0.343769266871E+03   -0.88200E-04   -0.88182E-04  7488   0.172E-02 0.230E-05
CGA:  18    -0.343769360383E+03   -0.93512E-04   -0.93491E-04  7488   0.557E-03 0.250E-05
CGA:  19    -0.343769383042E+03   -0.22660E-04   -0.22674E-04  7488   0.458E-03 0.113E-05
CGA:  20    -0.343769397631E+03   -0.14589E-04   -0.14597E-04  7488   0.250E-03-0.105E-07
CGA:  21    -0.343769425711E+03   -0.28080E-04   -0.28099E-04  7488   0.426E-03-0.560E-06
CGA:  22    -0.343769448179E+03   -0.22468E-04   -0.22469E-04  7488   0.109E-03-0.779E-06
CGA:  23    -0.343769451570E+03   -0.33909E-05   -0.33954E-05  7488   0.815E-04-0.304E-07
  15 F= -.34376945E+03 E0= -.34374864E+03  d E =-.865868E-02  mag=    20.0000
       N       E                     dE             d eps       ncg     rms          ort
SDA:   1    -0.343714645284E+03    0.54803E-01    0.00000E+00  7488   0.610E+00 0.000E+00
CGA:   2    -0.343726096441E+03   -0.11451E-01   -0.11436E-01  7488   0.174E+00 0.625E-03
CGA:   3    -0.343737283450E+03   -0.11187E-01   -0.11177E-01  7488   0.242E+00 0.553E-03
CGA:   4    -0.343756490210E+03   -0.19207E-01   -0.19227E-01  7488   0.177E+00-0.617E-03
CGA:   5    -0.343761288127E+03   -0.47979E-02   -0.47712E-02  7488   0.499E-01 0.492E-03
CGA:   6    -0.343763441502E+03   -0.21534E-02   -0.21528E-02  7488   0.391E-01-0.304E-04
CGA:   7    -0.343766685665E+03   -0.32442E-02   -0.32447E-02  7488   0.192E-01-0.164E-04
CGA:   8    -0.343767323704E+03   -0.63804E-03   -0.63900E-03  7488   0.112E-01-0.129E-04
CGA:   9    -0.343767637058E+03   -0.31335E-03   -0.31350E-03  7488   0.349E-02-0.375E-05
CGA:  10    -0.343767915866E+03   -0.27881E-03   -0.27885E-03  7488   0.272E-02-0.101E-05
CGA:  11    -0.343768070609E+03   -0.15474E-03   -0.15474E-03  7488   0.163E-02-0.153E-06
CGA:  12    -0.343768123462E+03   -0.52853E-04   -0.52809E-04  7488   0.113E-02-0.212E-05
CGA:  13    -0.343768174883E+03   -0.51421E-04   -0.51401E-04  7488   0.489E-03-0.288E-05
CGA:  14    -0.343768196377E+03   -0.21494E-04   -0.21479E-04  7488   0.433E-03-0.201E-05
CGA:  15    -0.343768220595E+03   -0.24218E-04   -0.24232E-04  7488   0.479E-03-0.257E-05
CGA:  16    -0.343768237822E+03   -0.17227E-04   -0.17189E-04  7488   0.634E-04-0.254E-05
CGA:  17    -0.343768242722E+03   -0.49007E-05   -0.49006E-05  7488   0.148E-03-0.316E-07
  16 F= -.34376824E+03 E0= -.34374745E+03  d E =0.120885E-02  mag=    20.0000
       N       E                     dE             d eps       ncg     rms          ort
SDA:   1    -0.343618264481E+03    0.14997E+00    0.00000E+00  7488   0.143E+01 0.000E+00
CGA:   2    -0.343644053270E+03   -0.25789E-01   -0.25767E-01  7488   0.437E+00-0.565E-04
CGA:   3    -0.343690894304E+03   -0.46841E-01   -0.46757E-01  7488   0.965E+00 0.155E-02
CGA:   4    -0.343741846528E+03   -0.50952E-01   -0.50952E-01  7488   0.190E+00-0.150E-02
CGA:   5    -0.343748797523E+03   -0.69510E-02   -0.69485E-02  7488   0.141E+00-0.458E-05
CGA:   6    -0.343756396106E+03   -0.75986E-02   -0.75985E-02  7488   0.131E+00 0.243E-04
CGA:   7    -0.343762851923E+03   -0.64558E-02   -0.64553E-02  7488   0.386E-01-0.113E-03
CGA:   8    -0.343764097891E+03   -0.12460E-02   -0.12472E-02  7488   0.196E-01-0.363E-05
CGA:   9    -0.343764682879E+03   -0.58499E-03   -0.58515E-03  7488   0.101E-01-0.937E-06
CGA:  10    -0.343765592659E+03   -0.90978E-03   -0.90999E-03  7488   0.692E-02-0.443E-05
CGA:  11    -0.343765910540E+03   -0.31788E-03   -0.31781E-03  7488   0.294E-02-0.651E-05
CGA:  12    -0.343766006616E+03   -0.96076E-04   -0.96034E-04  7488   0.191E-02-0.104E-05
CGA:  13    -0.343766142561E+03   -0.13594E-03   -0.13600E-03  7488   0.113E-02-0.281E-05
CGA:  14    -0.343766198296E+03   -0.55736E-04   -0.55731E-04  7488   0.124E-02-0.251E-05
CGA:  15    -0.343766245675E+03   -0.47379E-04   -0.47333E-04  7488   0.725E-03-0.354E-05
CGA:  16    -0.343766269045E+03   -0.23369E-04   -0.23347E-04  7488   0.159E-03-0.113E-05
CGA:  17    -0.343766287724E+03   -0.18679E-04   -0.18625E-04  7488   0.424E-03 0.796E-06
CGA:  18    -0.343766305723E+03   -0.17999E-04   -0.18008E-04  7488   0.227E-03 0.752E-06
CGA:  19    -0.343766313898E+03   -0.81750E-05   -0.81746E-05  7488   0.717E-04-0.107E-06
  17 F= -.34376631E+03 E0= -.34374554E+03  d E =0.192882E-02  mag=    20.0000
       N       E                     dE             d eps       ncg     rms          ort
SDA:   1    -0.342458725657E+03    0.13076E+01    0.00000E+00  7488   0.383E+01 0.000E+00
CGA:   2    -0.342800434335E+03   -0.34171E+00   -0.34102E+00  7488   0.115E+02 0.299E-01
CGA:   3    -0.343313108898E+03   -0.51267E+00   -0.51127E+00  7488   0.713E+01-0.272E-01
CGA:   4    -0.343522676415E+03   -0.20957E+00   -0.21739E+00  7488   0.137E+01-0.623E-01
CGA:   5    -0.343623414019E+03   -0.10074E+00   -0.10024E+00  7488   0.144E+01 0.181E-01
CGA:   6    -0.343691606187E+03   -0.68192E-01   -0.68098E-01  7488   0.129E+01-0.450E-02
CGA:   7    -0.343728559555E+03   -0.36953E-01   -0.36682E-01  7488   0.264E+00 0.448E-02
CGA:   8    -0.343737901464E+03   -0.93419E-02   -0.93050E-02  7488   0.165E+00 0.123E-04
CGA:   9    -0.343744176136E+03   -0.62747E-02   -0.62827E-02  7488   0.126E+00 0.106E-03
CGA:  10    -0.343753742721E+03   -0.95666E-02   -0.95661E-02  7488   0.490E-01 0.167E-04
CGA:  11    -0.343755502713E+03   -0.17600E-02   -0.17574E-02  7488   0.184E-01-0.801E-05
CGA:  12    -0.343756392571E+03   -0.88986E-03   -0.88996E-03  7488   0.316E-01 0.183E-04
CGA:  13    -0.343758091139E+03   -0.16986E-02   -0.16986E-02  7488   0.117E-01-0.995E-05
CGA:  14    -0.343758527954E+03   -0.43682E-03   -0.43700E-03  7488   0.463E-02-0.195E-05
CGA:  15    -0.343758723887E+03   -0.19593E-03   -0.19595E-03  7488   0.429E-02 0.900E-07
CGA:  16    -0.343758970854E+03   -0.24697E-03   -0.24697E-03  7488   0.282E-02-0.391E-06
CGA:  17    -0.343759189209E+03   -0.21836E-03   -0.21827E-03  7488   0.242E-02 0.202E-05
CGA:  18    -0.343759266580E+03   -0.77371E-04   -0.77374E-04  7488   0.146E-02-0.908E-06
CGA:  19    -0.343759322156E+03   -0.55576E-04   -0.55610E-04  7488   0.881E-03 0.108E-05
CGA:  20    -0.343759379246E+03   -0.57090E-04   -0.57052E-04  7488   0.767E-03 0.209E-05
CGA:  21    -0.343759434862E+03   -0.55616E-04   -0.55548E-04  7488   0.142E-02 0.314E-05
CGA:  22    -0.343759490880E+03   -0.56018E-04   -0.56066E-04  7488   0.280E-03 0.305E-05
CGA:  23    -0.343759505260E+03   -0.14380E-04   -0.14380E-04  7488   0.253E-03 0.781E-06
CGA:  24    -0.343759533283E+03   -0.28023E-04   -0.27860E-04  7488   0.575E-03 0.260E-05
CGA:  25    -0.343759548870E+03   -0.15587E-04   -0.15612E-04  7488   0.178E-03 0.590E-06
CGA:  26    -0.343759556870E+03   -0.79996E-05   -0.80050E-05  7488   0.824E-04 0.473E-06
  18 F= -.34375956E+03 E0= -.34373883E+03  d E =0.675703E-02  mag=    20.0000
       N       E                     dE             d eps       ncg     rms          ort
SDA:   1    -0.342299856965E+03    0.14597E+01    0.00000E+00  7488   0.684E+01 0.000E+00
CGA:   2    -0.342490626910E+03   -0.19077E+00   -0.19020E+00  7488   0.643E+01-0.289E-02
CGA:   3    -0.343329345299E+03   -0.83872E+00   -0.83882E+00  7488   0.388E+01-0.943E-02
CGA:   4    -0.343471762842E+03   -0.14242E+00   -0.13783E+00  7488   0.237E+01 0.261E-01
CGA:   5    -0.343576094960E+03   -0.10433E+00   -0.10424E+00  7488   0.183E+01-0.214E-02
CGA:   6    -0.343688617310E+03   -0.11252E+00   -0.11249E+00  7488   0.833E+00 0.286E-02
CGA:   7    -0.343720602970E+03   -0.31986E-01   -0.31816E-01  7488   0.246E+00-0.788E-03
CGA:   8    -0.343729929437E+03   -0.93265E-02   -0.93352E-02  7488   0.225E+00 0.775E-04
CGA:   9    -0.343738896036E+03   -0.89666E-02   -0.89641E-02  7488   0.144E+00-0.102E-04
CGA:  10    -0.343748112593E+03   -0.92166E-02   -0.91901E-02  7488   0.292E-01 0.153E-02
CGA:  11    -0.343749978543E+03   -0.18659E-02   -0.18669E-02  7488   0.344E-01-0.586E-04
CGA:  12    -0.343751467838E+03   -0.14893E-02   -0.14912E-02  7488   0.272E-01 0.536E-04
CGA:  13    -0.343752378673E+03   -0.91084E-03   -0.91230E-03  7488   0.127E-01-0.722E-05
CGA:  14    -0.343753259026E+03   -0.88035E-03   -0.87876E-03  7488   0.789E-02 0.661E-04
CGA:  15    -0.343753461142E+03   -0.20212E-03   -0.20247E-03  7488   0.283E-02-0.665E-05
CGA:  16    -0.343753681138E+03   -0.22000E-03   -0.21985E-03  7488   0.430E-02 0.277E-05
CGA:  17    -0.343753957703E+03   -0.27656E-03   -0.27645E-03  7488   0.241E-02 0.472E-05
CGA:  18    -0.343754039934E+03   -0.82231E-04   -0.82349E-04  7488   0.165E-02-0.331E-06
CGA:  19    -0.343754097919E+03   -0.57986E-04   -0.58054E-04  7488   0.622E-03 0.122E-05
CGA:  20    -0.343754190313E+03   -0.92393E-04   -0.91856E-04  7488   0.162E-02 0.521E-05
CGA:  21    -0.343754251263E+03   -0.60950E-04   -0.60992E-04  7488   0.685E-03 0.130E-05
CGA:  22    -0.343754272834E+03   -0.21571E-04   -0.21591E-04  7488   0.299E-03-0.529E-06
CGA:  23    -0.343754298761E+03   -0.25927E-04   -0.25880E-04  7488   0.437E-03 0.730E-06
CGA:  24    -0.343754313792E+03   -0.15032E-04   -0.15049E-04  7488   0.317E-03-0.196E-06
CGA:  25    -0.343754333397E+03   -0.19605E-04   -0.19599E-04  7488   0.196E-03 0.410E-06
CGA:  26    -0.343754344355E+03   -0.10958E-04   -0.10957E-04  7488   0.775E-04 0.350E-06
CGA:  27    -0.343754347697E+03   -0.33419E-05   -0.33497E-05  7488   0.909E-04 0.226E-06
  19 F= -.34375435E+03 E0= -.34373367E+03  d E =0.520917E-02  mag=    20.0000
       N       E                     dE             d eps       ncg     rms          ort
SDA:   1    -0.343324741074E+03    0.42960E+00    0.00000E+00  7488   0.208E+01 0.000E+00
CGA:   2    -0.343398184768E+03   -0.73444E-01   -0.73763E-01  7488   0.215E+01-0.236E-02
CGA:   3    -0.343527736088E+03   -0.12955E+00   -0.12963E+00  7488   0.287E+01-0.672E-02
CGA:   4    -0.343666156423E+03   -0.13842E+00   -0.13839E+00  7488   0.677E+00-0.185E-02
CGA:   5    -0.343703518945E+03   -0.37363E-01   -0.37412E-01  7488   0.356E+00-0.156E-01
CGA:   6    -0.343731000610E+03   -0.27482E-01   -0.27493E-01  7488   0.379E+00-0.357E-03
CGA:   7    -0.343744386488E+03   -0.13386E-01   -0.13451E-01  7488   0.195E+00-0.684E-04
CGA:   8    -0.343749198267E+03   -0.48118E-02   -0.48299E-02  7488   0.361E-01-0.432E-03
CGA:   9    -0.343753098132E+03   -0.38999E-02   -0.38933E-02  7488   0.374E-01 0.121E-03
CGA:  10    -0.343754406192E+03   -0.13081E-02   -0.13075E-02  7488   0.197E-01 0.155E-04
CGA:  11    -0.343755065873E+03   -0.65968E-03   -0.66002E-03  7488   0.109E-01 0.106E-04
CGA:  12    -0.343755669734E+03   -0.60386E-03   -0.60384E-03  7488   0.436E-02 0.893E-05
CGA:  13    -0.343755875039E+03   -0.20531E-03   -0.20536E-03  7488   0.596E-02 0.608E-05
CGA:  14    -0.343756192191E+03   -0.31715E-03   -0.31715E-03  7488   0.260E-02 0.911E-05
CGA:  15    -0.343756297143E+03   -0.10495E-03   -0.10502E-03  7488   0.102E-02 0.420E-05
CGA:  16    -0.343756336982E+03   -0.39839E-04   -0.39873E-04  7488   0.808E-03 0.102E-05
CGA:  17    -0.343756372960E+03   -0.35978E-04   -0.35989E-04  7488   0.760E-03 0.999E-06
CGA:  18    -0.343756442137E+03   -0.69177E-04   -0.69180E-04  7488   0.289E-03-0.259E-06
CGA:  19    -0.343756450763E+03   -0.86258E-05   -0.86336E-05  7488   0.160E-03 0.142E-06
  20 F= -.34375645E+03 E0= -.34373567E+03  d E =-.210307E-02  mag=    20.0000
       N       E                     dE             d eps       ncg     rms          ort
SDA:   1    -0.343685116907E+03    0.71325E-01    0.00000E+00  7488   0.720E+00 0.000E+00
CGA:   2    -0.343703340108E+03   -0.18223E-01   -0.18076E-01  7488   0.226E+00 0.315E-02
CGA:   3    -0.343714277106E+03   -0.10937E-01   -0.10936E-01  7488   0.378E+00-0.713E-04
CGA:   4    -0.343742207741E+03   -0.27931E-01   -0.27929E-01  7488   0.112E+00 0.664E-04
CGA:   5    -0.343747760174E+03   -0.55524E-02   -0.55525E-02  7488   0.647E-01 0.299E-04
CGA:   6    -0.343753327196E+03   -0.55670E-02   -0.55682E-02  7488   0.612E-01-0.253E-04
CGA:   7    -0.343755256124E+03   -0.19289E-02   -0.19331E-02  7488   0.242E-01-0.233E-04
CGA:   8    -0.343756001509E+03   -0.74539E-03   -0.74567E-03  7488   0.723E-02 0.172E-05
CGA:   9    -0.343756441322E+03   -0.43981E-03   -0.43989E-03  7488   0.872E-02-0.540E-05
CGA:  10    -0.343756752713E+03   -0.31139E-03   -0.31139E-03  7488   0.530E-02-0.235E-06
CGA:  11    -0.343756961134E+03   -0.20842E-03   -0.20852E-03  7488   0.105E-02 0.918E-06
CGA:  12    -0.343757042989E+03   -0.81855E-04   -0.81770E-04  7488   0.106E-02 0.308E-05
CGA:  13    -0.343757108749E+03   -0.65760E-04   -0.65759E-04  7488   0.733E-03-0.150E-07
CGA:  14    -0.343757136879E+03   -0.28131E-04   -0.28135E-04  7488   0.633E-03 0.229E-06
CGA:  15    -0.343757164150E+03   -0.27270E-04   -0.27274E-04  7488   0.210E-03 0.478E-06
CGA:  16    -0.343757171284E+03   -0.71348E-05   -0.71455E-05  7488   0.111E-03 0.617E-06
  21 F= -.34375717E+03 E0= -.34373639E+03  d E =-.720522E-03  mag=    20.0000
       N       E                     dE             d eps       ncg     rms          ort
SDA:   1    -0.343686192123E+03    0.70972E-01    0.00000E+00  7488   0.781E+00 0.000E+00
CGA:   2    -0.343701066856E+03   -0.14875E-01   -0.14816E-01  7488   0.189E+00 0.213E-02
CGA:   3    -0.343717698897E+03   -0.16632E-01   -0.16651E-01  7488   0.435E+00-0.427E-03
CGA:   4    -0.343741049012E+03   -0.23350E-01   -0.23352E-01  7488   0.235E+00-0.367E-03
CGA:   5    -0.343746402189E+03   -0.53532E-02   -0.53747E-02  7488   0.531E-01-0.558E-03
CGA:   6    -0.343750203107E+03   -0.38009E-02   -0.37940E-02  7488   0.504E-01 0.259E-03
CGA:   7    -0.343753211885E+03   -0.30088E-02   -0.30091E-02  7488   0.169E-01-0.175E-04
CGA:   8    -0.343754240138E+03   -0.10283E-02   -0.10287E-02  7488   0.112E-01-0.277E-04
CGA:   9    -0.343754519806E+03   -0.27967E-03   -0.27966E-03  7488   0.446E-02 0.552E-06
CGA:  10    -0.343754745077E+03   -0.22527E-03   -0.22527E-03  7488   0.269E-02 0.550E-06
CGA:  11    -0.343754914724E+03   -0.16965E-03   -0.16959E-03  7488   0.264E-02 0.360E-05
CGA:  12    -0.343755025026E+03   -0.11030E-03   -0.11031E-03  7488   0.155E-02 0.545E-06
CGA:  13    -0.343755072272E+03   -0.47246E-04   -0.47231E-04  7488   0.295E-03 0.136E-06
CGA:  14    -0.343755102235E+03   -0.29963E-04   -0.29937E-04  7488   0.579E-03 0.405E-06
CGA:  15    -0.343755127850E+03   -0.25615E-04   -0.25626E-04  7488   0.380E-03 0.123E-05
CGA:  16    -0.343755137254E+03   -0.94044E-05   -0.94099E-05  7488   0.759E-04 0.160E-06
  22 F= -.34375514E+03 E0= -.34373434E+03  d E =0.203403E-02  mag=    20.0000
       N       E                     dE             d eps       ncg     rms          ort
SDA:   1    -0.336616101125E+03    0.71390E+01    0.00000E+00  7488   0.206E+02 0.000E+00
CGA:   2    -0.338502587123E+03   -0.18865E+01   -0.20152E+01  7488   0.739E+02-0.289E+01
CGA:   3    -0.341324792311E+03   -0.28222E+01   -0.28283E+01  7488   0.430E+02 0.325E+00
CGA:   4    -0.342445344209E+03   -0.11206E+01   -0.11236E+01  7488   0.913E+01 0.146E-02
CGA:   5    -0.342725573217E+03   -0.28023E+00   -0.27942E+00  7488   0.927E+01 0.437E-02
CGA:   6    -0.343236736967E+03   -0.51116E+00   -0.51273E+00  7488   0.805E+01-0.238E+00
CGA:   7    -0.343479146638E+03   -0.24241E+00   -0.24720E+00  7488   0.439E+01-0.241E-01
CGA:   8    -0.343572000634E+03   -0.92854E-01   -0.94630E-01  7488   0.957E+00-0.514E-01
CGA:   9    -0.343609865674E+03   -0.37865E-01   -0.37691E-01  7488   0.812E+00-0.470E-02
CGA:  10    -0.343642123636E+03   -0.32258E-01   -0.32256E-01  7488   0.100E+01 0.661E-04
CGA:  11    -0.343687008690E+03   -0.44885E-01   -0.44995E-01  7488   0.375E+00 0.142E-01
CGA:  12    -0.343697929776E+03   -0.10921E-01   -0.11032E-01  7488   0.173E+00-0.751E-03
CGA:  13    -0.343702723489E+03   -0.47937E-02   -0.48277E-02  7488   0.104E+00-0.288E-03
CGA:  14    -0.343713453284E+03   -0.10730E-01   -0.10777E-01  7488   0.140E+00-0.886E-03
CGA:  15    -0.343716910536E+03   -0.34573E-02   -0.35088E-02  7488   0.417E-01-0.920E-03
CGA:  16    -0.343718209634E+03   -0.12991E-02   -0.13040E-02  7488   0.211E-01-0.124E-04
CGA:  17    -0.343719711948E+03   -0.15023E-02   -0.15028E-02  7488   0.309E-01-0.190E-04
CGA:  18    -0.343720723025E+03   -0.10111E-02   -0.10171E-02  7488   0.202E-01 0.264E-04
CGA:  19    -0.343721919824E+03   -0.11968E-02   -0.11973E-02  7488   0.942E-02-0.310E-04
CGA:  20    -0.343722324608E+03   -0.40478E-03   -0.40486E-03  7488   0.647E-02 0.532E-05
CGA:  21    -0.343722566884E+03   -0.24228E-03   -0.24261E-03  7488   0.597E-02 0.788E-05
CGA:  22    -0.343722867478E+03   -0.30059E-03   -0.30060E-03  7488   0.466E-02-0.116E-05
CGA:  23    -0.343723371984E+03   -0.50451E-03   -0.50303E-03  7488   0.483E-02 0.235E-04
CGA:  24    -0.343723515539E+03   -0.14356E-03   -0.14375E-03  7488   0.185E-02-0.116E-05
CGA:  25    -0.343723573366E+03   -0.57827E-04   -0.57870E-04  7488   0.136E-02 0.206E-05
CGA:  26    -0.343723784178E+03   -0.21081E-03   -0.20916E-03  7488   0.194E-02 0.161E-04
CGA:  27    -0.343723874547E+03   -0.90370E-04   -0.90405E-04  7488   0.865E-03 0.321E-05
CGA:  28    -0.343723897554E+03   -0.23006E-04   -0.23037E-04  7488   0.506E-03 0.102E-05
CGA:  29    -0.343723937464E+03   -0.39910E-04   -0.39856E-04  7488   0.730E-03 0.179E-05
CGA:  30    -0.343723991400E+03   -0.53936E-04   -0.53844E-04  7488   0.640E-03 0.399E-05
CGA:  31    -0.343724013247E+03   -0.21847E-04   -0.21879E-04  7488   0.300E-03 0.146E-05
SDA:  32    -0.343724023406E+03   -0.10159E-04   -0.10164E-04  7488   0.164E-03 0.188E-06
CGA:  33    -0.343724029917E+03   -0.65106E-05   -0.65094E-05  7488   0.155E-03-0.317E-06
  23 F= -.34372403E+03 E0= -.34370289E+03  d E =0.311073E-01  mag=    20.0000
       N       E                     dE             d eps       ncg     rms          ort
SDA:   1    -0.341883035569E+03    0.18410E+01    0.00000E+00  7488   0.718E+01 0.000E+00
CGA:   2    -0.342140443275E+03   -0.25741E+00   -0.25872E+00  7488   0.103E+02-0.145E-02
CGA:   3    -0.343127166650E+03   -0.98672E+00   -0.99061E+00  7488   0.812E+01-0.108E+00
CGA:   4    -0.343403160247E+03   -0.27599E+00   -0.27288E+00  7488   0.200E+01 0.211E-01
CGA:   5    -0.343501850393E+03   -0.98690E-01   -0.98755E-01  7488   0.317E+01 0.939E-02
CGA:   6    -0.343675813231E+03   -0.17396E+00   -0.17393E+00  7488   0.637E+00 0.666E-02
CGA:   7    -0.343697983032E+03   -0.22170E-01   -0.22075E-01  7488   0.254E+00 0.843E-04
CGA:   8    -0.343710909657E+03   -0.12927E-01   -0.12928E-01  7488   0.411E+00 0.108E-02
CGA:   9    -0.343727831468E+03   -0.16922E-01   -0.16943E-01  7488   0.133E+00 0.526E-03
CGA:  10    -0.343732663330E+03   -0.48319E-02   -0.48347E-02  7488   0.339E-01 0.251E-04
CGA:  11    -0.343736350600E+03   -0.36873E-02   -0.36797E-02  7488   0.621E-01 0.127E-03
CGA:  12    -0.343738006519E+03   -0.16559E-02   -0.16666E-02  7488   0.260E-01-0.191E-03
CGA:  13    -0.343739229339E+03   -0.12228E-02   -0.12232E-02  7488   0.151E-01 0.318E-04
CGA:  14    -0.343739978526E+03   -0.74919E-03   -0.74919E-03  7488   0.581E-02-0.156E-05
CGA:  15    -0.343740165309E+03   -0.18678E-03   -0.18695E-03  7488   0.499E-02-0.829E-06
CGA:  16    -0.343740683070E+03   -0.51776E-03   -0.51639E-03  7488   0.574E-02 0.241E-04
CGA:  17    -0.343740880883E+03   -0.19781E-03   -0.19785E-03  7488   0.215E-02-0.143E-05
CGA:  18    -0.343740936321E+03   -0.55439E-04   -0.55525E-04  7488   0.904E-03-0.339E-05
CGA:  19    -0.343741080492E+03   -0.14417E-03   -0.14355E-03  7488   0.205E-02 0.460E-05
CGA:  20    -0.343741175225E+03   -0.94734E-04   -0.94814E-04  7488   0.119E-02 0.248E-05
CGA:  21    -0.343741206627E+03   -0.31401E-04   -0.31430E-04  7488   0.445E-03-0.154E-06
CGA:  22    -0.343741240445E+03   -0.33818E-04   -0.33808E-04  7488   0.650E-03-0.400E-06
CGA:  23    -0.343741277987E+03   -0.37542E-04   -0.37541E-04  7488   0.663E-03-0.407E-06
CGA:  24    -0.343741301236E+03   -0.23249E-04   -0.23239E-04  7488   0.308E-03-0.128E-05
CGA:  25    -0.343741315747E+03   -0.14511E-04   -0.14506E-04  7488   0.159E-03-0.113E-05
CGA:  26    -0.343741325910E+03   -0.10163E-04   -0.10160E-04  7488   0.222E-03-0.126E-06
CGA:  27    -0.343741333037E+03   -0.71275E-05   -0.71424E-05  7488   0.113E-03 0.275E-06
  24 F= -.34374133E+03 E0= -.34372020E+03  d E =-.173031E-01  mag=    20.0000
       N       E                     dE             d eps       ncg     rms          ort
SDA:   1    -0.342265124229E+03    0.14762E+01    0.00000E+00  7488   0.477E+01 0.000E+00
CGA:   2    -0.342546725444E+03   -0.28160E+00   -0.28160E+00  7488   0.114E+02 0.199E-02
CGA:   3    -0.343229544961E+03   -0.68282E+00   -0.68346E+00  7488   0.791E+01-0.791E-01
CGA:   4    -0.343478754111E+03   -0.24921E+00   -0.24927E+00  7488   0.151E+01 0.604E-04
CGA:   5    -0.343579787366E+03   -0.10103E+00   -0.10102E+00  7488   0.269E+01 0.730E-03
CGA:   6    -0.343687843225E+03   -0.10806E+00   -0.10761E+00  7488   0.866E+00-0.379E-02
CGA:   7    -0.343715698787E+03   -0.27856E-01   -0.27969E-01  7488   0.193E+00-0.798E-03
CGA:   8    -0.343729543797E+03   -0.13845E-01   -0.13849E-01  7488   0.350E+00-0.140E-03
CGA:   9    -0.343739372812E+03   -0.98290E-02   -0.98471E-02  7488   0.918E-01-0.292E-03
CGA:  10    -0.343744285128E+03   -0.49123E-02   -0.49123E-02  7488   0.575E-01 0.364E-04
CGA:  11    -0.343747487344E+03   -0.32022E-02   -0.32014E-02  7488   0.279E-01 0.147E-03
CGA:  12    -0.343748426141E+03   -0.93880E-03   -0.93959E-03  7488   0.214E-01-0.117E-04
CGA:  13    -0.343749915296E+03   -0.14892E-02   -0.14892E-02  7488   0.203E-01-0.549E-05
CGA:  14    -0.343750677485E+03   -0.76219E-03   -0.76274E-03  7488   0.724E-02-0.803E-05
CGA:  15    -0.343750852951E+03   -0.17547E-03   -0.17547E-03  7488   0.269E-02-0.307E-05
CGA:  16    -0.343751129207E+03   -0.27626E-03   -0.27626E-03  7488   0.445E-02-0.836E-06
CGA:  17    -0.343751376709E+03   -0.24750E-03   -0.24748E-03  7488   0.201E-02 0.561E-05
CGA:  18    -0.343751439542E+03   -0.62833E-04   -0.62903E-04  7488   0.109E-02 0.101E-06
CGA:  19    -0.343751485764E+03   -0.46222E-04   -0.46248E-04  7488   0.709E-03 0.172E-05
CGA:  20    -0.343751550143E+03   -0.64379E-04   -0.64191E-04  7488   0.164E-02 0.462E-05
CGA:  21    -0.343751605308E+03   -0.55165E-04   -0.55263E-04  7488   0.535E-03 0.373E-05
CGA:  22    -0.343751637142E+03   -0.31834E-04   -0.31809E-04  7488   0.411E-03 0.305E-05
CGA:  23    -0.343751659023E+03   -0.21881E-04   -0.21882E-04  7488   0.242E-03 0.213E-05
CGA:  24    -0.343751668386E+03   -0.93632E-05   -0.93751E-05  7488   0.282E-03 0.400E-06
CGA:  25    -0.343751693637E+03   -0.25251E-04   -0.25146E-04  7488   0.218E-03 0.268E-05
CGA:  26    -0.343751699974E+03   -0.63378E-05   -0.63583E-05  7488   0.811E-04 0.525E-06
  25 F= -.34375170E+03 E0= -.34373079E+03  d E =-.103669E-01  mag=    20.0000
       N       E                     dE             d eps       ncg     rms          ort
SDA:   1    -0.343212285694E+03    0.53941E+00    0.00000E+00  7488   0.149E+01 0.000E+00
CGA:   2    -0.343432510865E+03   -0.22023E+00   -0.22197E+00  7488   0.408E+01-0.203E-01
CGA:   3    -0.343614564980E+03   -0.18205E+00   -0.18275E+00  7488   0.909E+00 0.147E-01
CGA:   4    -0.343647356907E+03   -0.32792E-01   -0.32836E-01  7488   0.948E+00-0.285E-04
CGA:   5    -0.343708828311E+03   -0.61471E-01   -0.61470E-01  7488   0.604E+00 0.106E-03
CGA:   6    -0.343727663310E+03   -0.18835E-01   -0.18721E-01  7488   0.189E+00 0.138E-02
CGA:   7    -0.343733345349E+03   -0.56820E-02   -0.56750E-02  7488   0.903E-01 0.127E-03
CGA:   8    -0.343739078054E+03   -0.57327E-02   -0.57324E-02  7488   0.669E-01 0.178E-04
CGA:   9    -0.343743392960E+03   -0.43149E-02   -0.43119E-02  7488   0.290E-01 0.195E-03
CGA:  10    -0.343744210591E+03   -0.81763E-03   -0.81727E-03  7488   0.135E-01 0.127E-04
CGA:  11    -0.343744883528E+03   -0.67294E-03   -0.67312E-03  7488   0.140E-01 0.287E-04
CGA:  12    -0.343745774372E+03   -0.89084E-03   -0.89090E-03  7488   0.100E-01-0.445E-05
CGA:  13    -0.343746032268E+03   -0.25790E-03   -0.25777E-03  7488   0.334E-02 0.176E-05
CGA:  14    -0.343746234858E+03   -0.20259E-03   -0.20262E-03  7488   0.202E-02-0.252E-05
CGA:  15    -0.343746344965E+03   -0.11011E-03   -0.11010E-03  7488   0.147E-02 0.185E-05
CGA:  16    -0.343746418594E+03   -0.73629E-04   -0.73628E-04  7488   0.202E-02-0.739E-07
CGA:  17    -0.343746515041E+03   -0.96447E-04   -0.96449E-04  7488   0.730E-03 0.314E-06
CGA:  18    -0.343746539365E+03   -0.24324E-04   -0.24330E-04  7488   0.362E-03 0.273E-06
CGA:  19    -0.343746556824E+03   -0.17459E-04   -0.17462E-04  7488   0.438E-03 0.861E-06
CGA:  20    -0.343746593772E+03   -0.36948E-04   -0.36929E-04  7488   0.440E-03 0.513E-06
CGA:  21    -0.343746616239E+03   -0.22467E-04   -0.22467E-04  7488   0.230E-03-0.263E-06
CGA:  22    -0.343746623312E+03   -0.70734E-05   -0.70720E-05  7488   0.136E-03-0.127E-06
  26 F= -.34374662E+03 E0= -.34372563E+03  d E =0.507666E-02  mag=    20.0000
       N       E                     dE             d eps       ncg     rms          ort
SDA:   1    -0.343377835573E+03    0.36878E+00    0.00000E+00  7488   0.157E+01 0.000E+00
CGA:   2    -0.343430910375E+03   -0.53075E-01   -0.53124E-01  7488   0.183E+01-0.212E-03
CGA:   3    -0.343577758492E+03   -0.14685E+00   -0.14721E+00  7488   0.226E+01-0.115E-01
CGA:   4    -0.343675051916E+03   -0.97293E-01   -0.97398E-01  7488   0.587E+00 0.307E-02
CGA:   5    -0.343693395268E+03   -0.18343E-01   -0.18398E-01  7488   0.387E+00-0.359E-03
CGA:   6    -0.343718777379E+03   -0.25382E-01   -0.25385E-01  7488   0.323E+00-0.851E-04
CGA:   7    -0.343733944892E+03   -0.15168E-01   -0.15162E-01  7488   0.649E-01-0.382E-03
CGA:   8    -0.343737009483E+03   -0.30646E-02   -0.30628E-02  7488   0.391E-01-0.150E-03
CGA:   9    -0.343738731088E+03   -0.17216E-02   -0.17216E-02  7488   0.420E-01 0.899E-05
CGA:  10    -0.343740692414E+03   -0.19613E-02   -0.19615E-02  7488   0.194E-01 0.253E-04
CGA:  11    -0.343741351709E+03   -0.65930E-03   -0.65937E-03  7488   0.801E-02 0.201E-05
CGA:  12    -0.343741632477E+03   -0.28077E-03   -0.28088E-03  7488   0.621E-02 0.504E-05
CGA:  13    -0.343742100386E+03   -0.46791E-03   -0.46769E-03  7488   0.323E-02 0.870E-05
CGA:  14    -0.343742280737E+03   -0.18035E-03   -0.18029E-03  7488   0.246E-02 0.906E-05
CGA:  15    -0.343742389706E+03   -0.10897E-03   -0.10900E-03  7488   0.142E-02 0.280E-05
CGA:  16    -0.343742431327E+03   -0.41621E-04   -0.41635E-04  7488   0.528E-03 0.980E-06
CGA:  17    -0.343742489655E+03   -0.58328E-04   -0.58339E-04  7488   0.139E-02-0.565E-06
CGA:  18    -0.343742533198E+03   -0.43543E-04   -0.43570E-04  7488   0.504E-03 0.256E-06
CGA:  19    -0.343742552549E+03   -0.19351E-04   -0.19351E-04  7488   0.173E-03-0.126E-06
CGA:  20    -0.343742565985E+03   -0.13436E-04   -0.13440E-04  7488   0.255E-03-0.393E-06
CGA:  21    -0.343742582723E+03   -0.16738E-04   -0.16752E-04  7488   0.418E-03-0.117E-05
CGA:  22    -0.343742600790E+03   -0.18067E-04   -0.18058E-04  7488   0.108E-03-0.117E-05
CGA:  23    -0.343742605061E+03   -0.42709E-05   -0.42655E-05  7488   0.776E-04-0.598E-06
  27 F= -.34374261E+03 E0= -.34372153E+03  d E =0.401825E-02  mag=    20.0000
       N       E                     dE             d eps       ncg     rms          ort
SDA:   1    -0.343662034235E+03    0.80567E-01    0.00000E+00  7488   0.148E+01 0.000E+00
CGA:   2    -0.343684861580E+03   -0.22827E-01   -0.22905E-01  7488   0.196E+00-0.584E-02
CGA:   3    -0.343705197154E+03   -0.20336E-01   -0.20412E-01  7488   0.424E+00-0.141E-02
CGA:   4    -0.343729648246E+03   -0.24451E-01   -0.24444E-01  7488   0.134E+00 0.904E-03
CGA:   5    -0.343734211375E+03   -0.45631E-02   -0.45691E-02  7488   0.861E-01-0.909E-05
CGA:   6    -0.343738613928E+03   -0.44026E-02   -0.44028E-02  7488   0.809E-01 0.105E-03
CGA:   7    -0.343742472417E+03   -0.38585E-02   -0.38581E-02  7488   0.225E-01-0.271E-04
CGA:   8    -0.343743139074E+03   -0.66666E-03   -0.66707E-03  7488   0.154E-01-0.791E-06
CGA:   9    -0.343743867926E+03   -0.72885E-03   -0.72880E-03  7488   0.597E-02-0.812E-05
CGA:  10    -0.343744206120E+03   -0.33819E-03   -0.33819E-03  7488   0.353E-02 0.180E-05
CGA:  11    -0.343744410638E+03   -0.20452E-03   -0.20453E-03  7488   0.419E-02-0.185E-05
CGA:  12    -0.343744534337E+03   -0.12370E-03   -0.12366E-03  7488   0.890E-03-0.176E-05
CGA:  13    -0.343744582574E+03   -0.48237E-04   -0.48236E-04  7488   0.913E-03 0.114E-06
CGA:  14    -0.343744619614E+03   -0.37040E-04   -0.37042E-04  7488   0.837E-03 0.259E-06
CGA:  15    -0.343744664712E+03   -0.45098E-04   -0.45104E-04  7488   0.317E-03-0.146E-05
CGA:  16    -0.343744677499E+03   -0.12787E-04   -0.12780E-04  7488   0.976E-04-0.722E-06
CGA:  17    -0.343744683002E+03   -0.55028E-05   -0.55034E-05  7488   0.189E-03-0.122E-06
CGA:  18    -0.343744694362E+03   -0.11360E-04   -0.11354E-04  7488   0.102E-03 0.616E-06
CGA:  19    -0.343744697858E+03   -0.34959E-05   -0.34961E-05  7488   0.457E-04-0.282E-07
  28 F= -.34374470E+03 E0= -.34372363E+03  d E =-.209280E-02  mag=    20.0000
       N       E                     dE             d eps       ncg     rms          ort
SDA:   1    -0.343632412360E+03    0.11228E+00    0.00000E+00  7488   0.500E+00 0.000E+00
CGA:   2    -0.343648821876E+03   -0.16410E-01   -0.16412E-01  7488   0.530E+00 0.116E-03
CGA:   3    -0.343703026299E+03   -0.54204E-01   -0.54419E-01  7488   0.767E+00-0.410E-02
CGA:   4    -0.343726307285E+03   -0.23281E-01   -0.23410E-01  7488   0.185E+00-0.105E-02
CGA:   5    -0.343731712601E+03   -0.54053E-02   -0.54100E-02  7488   0.117E+00-0.575E-04
CGA:   6    -0.343741788452E+03   -0.10076E-01   -0.10081E-01  7488   0.878E-01-0.138E-03
CGA:   7    -0.343745104300E+03   -0.33158E-02   -0.33150E-02  7488   0.149E-01-0.120E-04
CGA:   8    -0.343745725812E+03   -0.62151E-03   -0.62162E-03  7488   0.177E-01 0.540E-05
CGA:   9    -0.343746592439E+03   -0.86663E-03   -0.86663E-03  7488   0.115E-01 0.240E-06
CGA:  10    -0.343747073836E+03   -0.48140E-03   -0.48126E-03  7488   0.381E-02-0.745E-05
CGA:  11    -0.343747216275E+03   -0.14244E-03   -0.14239E-03  7488   0.290E-02-0.377E-05
CGA:  12    -0.343747348955E+03   -0.13268E-03   -0.13267E-03  7488   0.167E-02-0.488E-05
CGA:  13    -0.343747458304E+03   -0.10935E-03   -0.10944E-03  7488   0.122E-02-0.606E-05
CGA:  14    -0.343747503475E+03   -0.45171E-04   -0.45144E-04  7488   0.907E-03-0.235E-05
CGA:  15    -0.343747535198E+03   -0.31722E-04   -0.31698E-04  7488   0.327E-03-0.224E-05
CGA:  16    -0.343747552191E+03   -0.16993E-04   -0.16996E-04  7488   0.178E-03-0.839E-06
CGA:  17    -0.343747563722E+03   -0.11530E-04   -0.11539E-04  7488   0.350E-03-0.673E-06
CGA:  18    -0.343747580763E+03   -0.17041E-04   -0.17041E-04  7488   0.119E-03 0.279E-07
CGA:  19    -0.343747584508E+03   -0.37452E-05   -0.37517E-05  7488   0.438E-04 0.149E-06
  29 F= -.34374758E+03 E0= -.34372653E+03  d E =-.288665E-02  mag=    20.0000
       N       E                     dE             d eps       ncg     rms          ort
SDA:   1    -0.343321543501E+03    0.42604E+00    0.00000E+00  7488   0.140E+01 0.000E+00
CGA:   2    -0.343397263052E+03   -0.75720E-01   -0.75641E-01  7488   0.297E+01 0.909E-02
CGA:   3    -0.343602360538E+03   -0.20510E+00   -0.20530E+00  7488   0.220E+01-0.867E-02
CGA:   4    -0.343670240503E+03   -0.67880E-01   -0.67733E-01  7488   0.601E+00 0.169E-02
CGA:   5    -0.343691297572E+03   -0.21057E-01   -0.20961E-01  7488   0.520E+00-0.539E-03
CGA:   6    -0.343730420574E+03   -0.39123E-01   -0.39121E-01  7488   0.276E+00 0.640E-04
CGA:   7    -0.343739694794E+03   -0.92742E-02   -0.92863E-02  7488   0.448E-01 0.141E-04
CGA:   8    -0.343742482895E+03   -0.27881E-02   -0.27889E-02  7488   0.823E-01-0.398E-04
CGA:   9    -0.343745888086E+03   -0.34052E-02   -0.34055E-02  7488   0.416E-01 0.880E-05
CGA:  10    -0.343747258683E+03   -0.13706E-02   -0.13712E-02  7488   0.752E-02-0.177E-05
CGA:  11    -0.343747590696E+03   -0.33201E-03   -0.33198E-03  7488   0.107E-01-0.624E-05
CGA:  12    -0.343748410759E+03   -0.82006E-03   -0.82021E-03  7488   0.481E-02-0.753E-05
CGA:  13    -0.343748589411E+03   -0.17865E-03   -0.17868E-03  7488   0.147E-02-0.509E-05
[...]
CGA:   6    -0.343703009757E+03   -0.65065E-01   -0.65127E-01  7488   0.809E+00 0.931E-03
CGA:   7    -0.343735502438E+03   -0.32493E-01   -0.32545E-01  7488   0.341E+00 0.187E-02
CGA:   8    -0.343749158162E+03   -0.13656E-01   -0.13662E-01  7488   0.237E+00 0.202E-03
CGA:   9    -0.343755306515E+03   -0.61484E-02   -0.61581E-02  7488   0.960E-01-0.189E-03
CGA:  10    -0.343761256665E+03   -0.59502E-02   -0.59657E-02  7488   0.508E-01-0.744E-03
CGA:  11    -0.343764665139E+03   -0.34085E-02   -0.34034E-02  7488   0.314E-01 0.198E-03
CGA:  12    -0.343765781261E+03   -0.11161E-02   -0.11164E-02  7488   0.175E-01 0.256E-05
CGA:  13    -0.343766244862E+03   -0.46360E-03   -0.46356E-03  7488   0.894E-02-0.742E-05
CGA:  14    -0.343767277285E+03   -0.10324E-02   -0.10342E-02  7488   0.135E-01-0.248E-04
CGA:  15    -0.343767630343E+03   -0.35306E-03   -0.35295E-03  7488   0.320E-02-0.126E-04
CGA:  16    -0.343767748673E+03   -0.11833E-03   -0.11831E-03  7488   0.172E-02-0.264E-05
CGA:  17    -0.343767912033E+03   -0.16336E-03   -0.16334E-03  7488   0.275E-02 0.214E-06
CGA:  18    -0.343767981091E+03   -0.69058E-04   -0.69123E-04  7488   0.120E-02 0.318E-06
CGA:  19    -0.343768040995E+03   -0.59904E-04   -0.59904E-04  7488   0.670E-03 0.442E-06
CGA:  20    -0.343768078253E+03   -0.37258E-04   -0.37248E-04  7488   0.257E-03 0.156E-05
CGA:  21    -0.343768092783E+03   -0.14529E-04   -0.14517E-04  7488   0.489E-03 0.154E-05
CGA:  22    -0.343768117242E+03   -0.24460E-04   -0.24461E-04  7488   0.434E-03 0.422E-05
CGA:  23    -0.343768133042E+03   -0.15799E-04   -0.15832E-04  7488   0.104E-03 0.251E-05
CGA:  24    -0.343768137539E+03   -0.44969E-05   -0.45051E-05  7488   0.129E-03 0.122E-05
  49 F= -.34376814E+03 E0= -.34374703E+03  d E =-.285432E-01  mag=    20.0000
       N       E                     dE             d eps       ncg     rms          ort
SDA:   1    -0.343559001817E+03    0.20913E+00    0.00000E+00  7488   0.858E+00 0.000E+00
CGA:   2    -0.343602646795E+03   -0.43645E-01   -0.43654E-01  7488   0.137E+01-0.441E-02
CGA:   3    -0.343678839536E+03   -0.76193E-01   -0.76178E-01  7488   0.119E+01 0.153E-02
CGA:   4    -0.343719319712E+03   -0.40480E-01   -0.40495E-01  7488   0.570E+00 0.515E-04
CGA:   5    -0.343739709506E+03   -0.20390E-01   -0.20365E-01  7488   0.458E+00-0.232E-03
CGA:   6    -0.343759496543E+03   -0.19787E-01   -0.19807E-01  7488   0.156E+00 0.136E-02
CGA:   7    -0.343769378219E+03   -0.98817E-02   -0.98827E-02  7488   0.111E+00-0.708E-04
CGA:   8    -0.343775818380E+03   -0.64402E-02   -0.64424E-02  7488   0.279E-01-0.203E-03
CGA:   9    -0.343777078088E+03   -0.12597E-02   -0.12597E-02  7488   0.224E-01-0.980E-05
CGA:  10    -0.343777868310E+03   -0.79022E-03   -0.79003E-03  7488   0.171E-01-0.636E-05
CGA:  11    -0.343778793120E+03   -0.92481E-03   -0.92482E-03  7488   0.121E-01-0.619E-05
CGA:  12    -0.343779090624E+03   -0.29750E-03   -0.29733E-03  7488   0.374E-02-0.656E-05
CGA:  13    -0.343779264137E+03   -0.17351E-03   -0.17349E-03  7488   0.218E-02-0.137E-04
CGA:  14    -0.343779494480E+03   -0.23034E-03   -0.23179E-03  7488   0.263E-02-0.242E-04
CGA:  15    -0.343779592450E+03   -0.97970E-04   -0.97851E-04  7488   0.608E-03-0.986E-05
CGA:  16    -0.343779612009E+03   -0.19558E-04   -0.19539E-04  7488   0.579E-03-0.113E-05
CGA:  17    -0.343779647679E+03   -0.35670E-04   -0.35689E-04  7488   0.453E-03-0.159E-05
CGA:  18    -0.343779663858E+03   -0.16179E-04   -0.16186E-04  7488   0.360E-03 0.347E-06
CGA:  19    -0.343779682543E+03   -0.18685E-04   -0.18682E-04  7488   0.204E-03 0.101E-05
CGA:  20    -0.343779692091E+03   -0.95487E-05   -0.95503E-05  7488   0.513E-04 0.578E-06
  50 F= -.34377969E+03 E0= -.34375860E+03  d E =-.115546E-01  mag=    20.0000
       N       E                     dE             d eps       ncg     rms          ort
SDA:   1    -0.343499371749E+03    0.28031E+00    0.00000E+00  7488   0.218E+01 0.000E+00
CGA:   2    -0.343541325757E+03   -0.41954E-01   -0.42260E-01  7488   0.102E+01-0.135E-01
CGA:   3    -0.343661977908E+03   -0.12065E+00   -0.12200E+00  7488   0.151E+01-0.213E-01
CGA:   4    -0.343702722706E+03   -0.40745E-01   -0.40647E-01  7488   0.707E+00 0.162E-02
CGA:   5    -0.343747288341E+03   -0.44566E-01   -0.44394E-01  7488   0.385E+00 0.986E-02
CGA:   6    -0.343765254442E+03   -0.17966E-01   -0.17977E-01  7488   0.165E+00 0.713E-03
CGA:   7    -0.343776249540E+03   -0.10995E-01   -0.10988E-01  7488   0.206E+00 0.312E-03
CGA:   8    -0.343781722636E+03   -0.54731E-02   -0.54793E-02  7488   0.792E-01-0.205E-03
CGA:   9    -0.343784186392E+03   -0.24638E-02   -0.24629E-02  7488   0.162E-01-0.218E-04
CGA:  10    -0.343786460304E+03   -0.22739E-02   -0.22762E-02  7488   0.189E-01-0.215E-04
CGA:  11    -0.343787064666E+03   -0.60436E-03   -0.60501E-03  7488   0.667E-02-0.127E-04
CGA:  12    -0.343787229019E+03   -0.16435E-03   -0.16429E-03  7488   0.331E-02-0.674E-05
CGA:  13    -0.343787580207E+03   -0.35119E-03   -0.35255E-03  7488   0.612E-02-0.253E-04
CGA:  14    -0.343787781345E+03   -0.20114E-03   -0.20081E-03  7488   0.178E-02-0.153E-04
CGA:  15    -0.343787830405E+03   -0.49060E-04   -0.49013E-04  7488   0.531E-03-0.338E-05
CGA:  16    -0.343787876000E+03   -0.45595E-04   -0.45561E-04  7488   0.812E-03 0.788E-06
CGA:  17    -0.343787909011E+03   -0.33010E-04   -0.33023E-04  7488   0.849E-03 0.474E-06
CGA:  18    -0.343787938656E+03   -0.29645E-04   -0.29644E-04  7488   0.223E-03-0.340E-06
CGA:  19    -0.343787949822E+03   -0.11166E-04   -0.11167E-04  7488   0.115E-03 0.421E-06
CGA:  20    -0.343787957654E+03   -0.78321E-05   -0.78166E-05  7488   0.133E-03 0.828E-06
  51 F= -.34378796E+03 E0= -.34376684E+03  d E =-.826556E-02  mag=    20.0000
       N       E                     dE             d eps       ncg     rms          ort
SDA:   1    -0.343719735675E+03    0.68214E-01    0.00000E+00  7488   0.738E+00 0.000E+00
CGA:   2    -0.343732262466E+03   -0.12527E-01   -0.12478E-01  7488   0.223E+00 0.169E-02
CGA:   3    -0.343753950861E+03   -0.21688E-01   -0.21812E-01  7488   0.312E+00-0.260E-02
CGA:   4    -0.343768839225E+03   -0.14888E-01   -0.14891E-01  7488   0.184E+00 0.240E-03
CGA:   5    -0.343777783853E+03   -0.89446E-02   -0.89468E-02  7488   0.162E+00 0.259E-03
CGA:   6    -0.343783235208E+03   -0.54514E-02   -0.54596E-02  7488   0.379E-01-0.319E-04
CGA:   7    -0.343785331569E+03   -0.20964E-02   -0.20962E-02  7488   0.335E-01 0.183E-04
CGA:   8    -0.343786870560E+03   -0.15390E-02   -0.15391E-02  7488   0.367E-01-0.346E-05
CGA:   9    -0.343787883520E+03   -0.10130E-02   -0.10126E-02  7488   0.731E-02-0.151E-04
CGA:  10    -0.343788206434E+03   -0.32291E-03   -0.32272E-03  7488   0.312E-02-0.188E-04
CGA:  11    -0.343788406587E+03   -0.20015E-03   -0.20020E-03  7488   0.448E-02-0.431E-05
CGA:  12    -0.343788581785E+03   -0.17520E-03   -0.17510E-03  7488   0.184E-02-0.929E-05
CGA:  13    -0.343788655751E+03   -0.73966E-04   -0.73899E-04  7488   0.525E-03-0.640E-05
CGA:  14    -0.343788680141E+03   -0.24390E-04   -0.24379E-04  7488   0.938E-03-0.395E-05
CGA:  15    -0.343788731623E+03   -0.51482E-04   -0.51529E-04  7488   0.589E-03-0.792E-05
CGA:  16    -0.343788753276E+03   -0.21653E-04   -0.21613E-04  7488   0.107E-03-0.315E-05
CGA:  17    -0.343788758511E+03   -0.52349E-05   -0.52349E-05  7488   0.149E-03-0.832E-07
  52 F= -.34378876E+03 E0= -.34376762E+03  d E =-.800857E-03  mag=    20.0000
       N       E                     dE             d eps       ncg     rms          ort
SDA:   1    -0.343757382872E+03    0.31370E-01    0.00000E+00  7488   0.323E+00 0.000E+00
CGA:   2    -0.343763931956E+03   -0.65491E-02   -0.65494E-02  7488   0.106E+00-0.434E-04
CGA:   3    -0.343769527738E+03   -0.55958E-02   -0.55941E-02  7488   0.152E+00 0.219E-03
CGA:   4    -0.343779411161E+03   -0.98834E-02   -0.98872E-02  7488   0.143E+00-0.177E-03
CGA:   5    -0.343783058284E+03   -0.36471E-02   -0.36524E-02  7488   0.328E-01-0.811E-04
CGA:   6    -0.343784894533E+03   -0.18362E-02   -0.18371E-02  7488   0.253E-01-0.687E-04
CGA:   7    -0.343786777897E+03   -0.18834E-02   -0.18830E-02  7488   0.145E-01 0.809E-05
CGA:   8    -0.343787446925E+03   -0.66903E-03   -0.66917E-03  7488   0.573E-02 0.168E-04
CGA:   9    -0.343787581258E+03   -0.13433E-03   -0.13431E-03  7488   0.290E-02 0.745E-06
CGA:  10    -0.343787791580E+03   -0.21032E-03   -0.21048E-03  7488   0.259E-02-0.649E-05
CGA:  11    -0.343787882882E+03   -0.91301E-04   -0.91218E-04  7488   0.124E-02-0.459E-05
CGA:  12    -0.343787926416E+03   -0.43534E-04   -0.43482E-04  7488   0.632E-03-0.388E-05
CGA:  13    -0.343787966590E+03   -0.40174E-04   -0.40256E-04  7488   0.380E-03-0.496E-05
CGA:  14    -0.343787980196E+03   -0.13605E-04   -0.13575E-04  7488   0.393E-03-0.247E-05
CGA:  15    -0.343787999449E+03   -0.19253E-04   -0.19257E-04  7488   0.310E-03-0.360E-05
CGA:  16    -0.343788012782E+03   -0.13333E-04   -0.13320E-04  7488   0.631E-04-0.293E-05
CGA:  17    -0.343788016002E+03   -0.32193E-05   -0.32202E-05  7488   0.740E-04-0.277E-06
  53 F= -.34378802E+03 E0= -.34376686E+03  d E =0.742509E-03  mag=    20.0000
       N       E                     dE             d eps       ncg     rms          ort
SDA:   1    -0.343763559389E+03    0.24453E-01    0.00000E+00  7488   0.826E+00 0.000E+00
CGA:   2    -0.343775224732E+03   -0.11665E-01   -0.11659E-01  7488   0.611E-01 0.695E-04
CGA:   3    -0.343777769830E+03   -0.25451E-02   -0.25451E-02  7488   0.478E-01 0.923E-05
CGA:   4    -0.343781460093E+03   -0.36903E-02   -0.36928E-02  7488   0.790E-01-0.645E-04
CGA:   5    -0.343784113682E+03   -0.26536E-02   -0.26520E-02  7488   0.204E-01-0.937E-05
CGA:   6    -0.343784958365E+03   -0.84468E-03   -0.84453E-03  7488   0.896E-02-0.112E-04
CGA:   7    -0.343785802999E+03   -0.84463E-03   -0.84560E-03  7488   0.999E-02-0.200E-04
CGA:   8    -0.343786381122E+03   -0.57812E-03   -0.57793E-03  7488   0.206E-02 0.136E-04
CGA:   9    -0.343786442640E+03   -0.61518E-04   -0.61516E-04  7488   0.128E-02-0.862E-06
CGA:  10    -0.343786495985E+03   -0.53345E-04   -0.53344E-04  7488   0.116E-02-0.108E-06
CGA:  11    -0.343786571201E+03   -0.75216E-04   -0.75256E-04  7488   0.104E-02-0.234E-05
CGA:  12    -0.343786594475E+03   -0.23274E-04   -0.23245E-04  7488   0.162E-03-0.997E-06
CGA:  13    -0.343786610776E+03   -0.16301E-04   -0.16510E-04  7488   0.274E-03-0.387E-05
CGA:  14    -0.343786626640E+03   -0.15864E-04   -0.15886E-04  7488   0.143E-03-0.248E-05
CGA:  15    -0.343786630831E+03   -0.41912E-05   -0.41764E-05  7488   0.104E-03-0.684E-06
  54 F= -.34378663E+03 E0= -.34376547E+03  d E =0.138517E-02  mag=    20.0000
       N       E                     dE             d eps       ncg     rms          ort
SDA:   1    -0.343681474370E+03    0.10515E+00    0.00000E+00  7488   0.520E+00 0.000E+00
CGA:   2    -0.343698648471E+03   -0.17174E-01   -0.17244E-01  7488   0.528E+00 0.183E-03
CGA:   3    -0.343731508204E+03   -0.32860E-01   -0.32851E-01  7488   0.707E+00 0.462E-03
CGA:   4    -0.343758589195E+03   -0.27081E-01   -0.27005E-01  7488   0.190E+00-0.122E-02
CGA:   5    -0.343764538304E+03   -0.59491E-02   -0.59498E-02  7488   0.120E+00-0.402E-05
CGA:   6    -0.343771989359E+03   -0.74511E-02   -0.74390E-02  7488   0.112E+00 0.641E-03
CGA:   7    -0.343778139435E+03   -0.61501E-02   -0.61506E-02  7488   0.602E-01-0.501E-04
CGA:   8    -0.343779649179E+03   -0.15097E-02   -0.15065E-02  7488   0.238E-01 0.636E-04
CGA:   9    -0.343780407900E+03   -0.75872E-03   -0.75870E-03  7488   0.742E-02-0.560E-05
CGA:  10    -0.343781170786E+03   -0.76289E-03   -0.76199E-03  7488   0.907E-02 0.171E-04
CGA:  11    -0.343781452500E+03   -0.28171E-03   -0.28158E-03  7488   0.435E-02 0.143E-05
CGA:  12    -0.343781622807E+03   -0.17031E-03   -0.17028E-03  7488   0.278E-02-0.162E-05
CGA:  13    -0.343781742948E+03   -0.12014E-03   -0.12012E-03  7488   0.167E-02-0.380E-05
CGA:  14    -0.343781790460E+03   -0.47512E-04   -0.47507E-04  7488   0.912E-03-0.129E-05
CGA:  15    -0.343781906473E+03   -0.11601E-03   -0.11616E-03  7488   0.695E-03-0.186E-05
CGA:  16    -0.343781929459E+03   -0.22985E-04   -0.22977E-04  7488   0.425E-03-0.579E-06
CGA:  17    -0.343781946140E+03   -0.16681E-04   -0.16674E-04  7488   0.423E-03-0.881E-06
CGA:  18    -0.343781978626E+03   -0.32486E-04   -0.32458E-04  7488   0.513E-03 0.101E-05
CGA:  19    -0.343782001432E+03   -0.22807E-04   -0.22815E-04  7488   0.381E-03 0.115E-05
CGA:  20    -0.343782014251E+03   -0.12819E-04   -0.12835E-04  7488   0.131E-03 0.637E-06
CGA:  21    -0.343782024402E+03   -0.10151E-04   -0.10155E-04  7488   0.277E-03-0.198E-06
CGA:  22    -0.343782038049E+03   -0.13647E-04   -0.13649E-04  7488   0.293E-03 0.689E-06
CGA:  23    -0.343782047440E+03   -0.93900E-05   -0.93996E-05  7488   0.722E-04 0.455E-06
  55 F= -.34378205E+03 E0= -.34376088E+03  d E =0.458339E-02  mag=    20.0000
       N       E                     dE             d eps       ncg     rms          ort
SDA:   1    -0.343691657641E+03    0.90380E-01    0.00000E+00  7488   0.575E+00 0.000E+00
CGA:   2    -0.343707650704E+03   -0.15993E-01   -0.15956E-01  7488   0.382E+00 0.563E-03
CGA:   3    -0.343736499303E+03   -0.28849E-01   -0.28728E-01  7488   0.482E+00 0.407E-02
CGA:   4    -0.343754798287E+03   -0.18299E-01   -0.18264E-01  7488   0.238E+00-0.253E-03
CGA:   5    -0.343760722796E+03   -0.59245E-02   -0.59098E-02  7488   0.927E-01 0.329E-03
CGA:   6    -0.343768517792E+03   -0.77950E-02   -0.78008E-02  7488   0.121E+00-0.141E-03
CGA:   7    -0.343774503092E+03   -0.59853E-02   -0.59860E-02  7488   0.243E-01 0.229E-03
CGA:   8    -0.343775545816E+03   -0.10427E-02   -0.10430E-02  7488   0.219E-01 0.197E-04
CGA:   9    -0.343776391554E+03   -0.84574E-03   -0.84598E-03  7488   0.116E-01 0.952E-05
CGA:  10    -0.343776839965E+03   -0.44841E-03   -0.44846E-03  7488   0.700E-02 0.618E-05
CGA:  11    -0.343777101100E+03   -0.26113E-03   -0.26117E-03  7488   0.602E-02 0.386E-05
CGA:  12    -0.343777362614E+03   -0.26151E-03   -0.26150E-03  7488   0.148E-02 0.275E-05
CGA:  13    -0.343777461438E+03   -0.98824E-04   -0.98748E-04  7488   0.131E-02 0.392E-05
CGA:  14    -0.343777548082E+03   -0.86644E-04   -0.86558E-04  7488   0.167E-02 0.562E-05
CGA:  15    -0.343777608066E+03   -0.59984E-04   -0.60046E-04  7488   0.609E-03 0.443E-05
CGA:  16    -0.343777635060E+03   -0.26994E-04   -0.27000E-04  7488   0.244E-03 0.105E-05
CGA:  17    -0.343777668931E+03   -0.33871E-04   -0.33796E-04  7488   0.622E-03 0.776E-06
CGA:  18    -0.343777691803E+03   -0.22873E-04   -0.22904E-04  7488   0.322E-03 0.165E-05
CGA:  19    -0.343777701865E+03   -0.10062E-04   -0.10077E-04  7488   0.139E-03 0.582E-06
CGA:  20    -0.343777710197E+03   -0.83317E-05   -0.83314E-05  7488   0.254E-03 0.143E-08
CGA:  21    -0.343777721932E+03   -0.11735E-04   -0.11730E-04  7488   0.156E-03-0.865E-06
CGA:  22    -0.343777730920E+03   -0.89879E-05   -0.89919E-05  7488   0.118E-03-0.722E-06
  56 F= -.34377773E+03 E0= -.34375652E+03  d E =0.431652E-02  mag=    20.0000
       N       E                     dE             d eps       ncg     rms          ort
SDA:   1    -0.343683249776E+03    0.94472E-01    0.00000E+00  7488   0.748E+00 0.000E+00
CGA:   2    -0.343699705693E+03   -0.16456E-01   -0.16313E-01  7488   0.325E+00 0.404E-02
CGA:   3    -0.343726442273E+03   -0.26737E-01   -0.26765E-01  7488   0.605E+00-0.762E-03
CGA:   4    -0.343749659104E+03   -0.23217E-01   -0.23221E-01  7488   0.290E+00 0.568E-04
CGA:   5    -0.343757256507E+03   -0.75974E-02   -0.75693E-02  7488   0.903E-01 0.571E-03
CGA:   6    -0.343765437541E+03   -0.81810E-02   -0.81940E-02  7488   0.112E+00-0.293E-03
CGA:   7    -0.343771218216E+03   -0.57807E-02   -0.57808E-02  7488   0.288E-01 0.550E-04
CGA:   8    -0.343772434914E+03   -0.12167E-02   -0.12183E-02  7488   0.124E-01 0.417E-04
CGA:   9    -0.343772911442E+03   -0.47653E-03   -0.47656E-03  7488   0.116E-01 0.606E-05
CGA:  10    -0.343773728925E+03   -0.81748E-03   -0.81706E-03  7488   0.546E-02 0.218E-04
CGA:  11    -0.343773888582E+03   -0.15966E-03   -0.15963E-03  7488   0.232E-02 0.464E-05
CGA:  12    -0.343773962190E+03   -0.73609E-04   -0.73654E-04  7488   0.176E-02 0.316E-05
CGA:  13    -0.343774153642E+03   -0.19145E-03   -0.19094E-03  7488   0.127E-02 0.889E-05
CGA:  14    -0.343774193651E+03   -0.40008E-04   -0.40071E-04  7488   0.530E-03 0.298E-05
CGA:  15    -0.343774215654E+03   -0.22003E-04   -0.22023E-04  7488   0.397E-03 0.189E-05
CGA:  16    -0.343774249705E+03   -0.34051E-04   -0.33977E-04  7488   0.369E-03 0.216E-05
CGA:  17    -0.343774268750E+03   -0.19046E-04   -0.19048E-04  7488   0.405E-03 0.935E-06
CGA:  18    -0.343774281439E+03   -0.12689E-04   -0.12712E-04  7488   0.192E-03 0.972E-06
CGA:  19    -0.343774290285E+03   -0.88462E-05   -0.88468E-05  7488   0.113E-03 0.622E-07
  57 F= -.34377429E+03 E0= -.34375309E+03  d E =0.344063E-02  mag=    20.0000
       N       E                     dE             d eps       ncg     rms          ort
SDA:   1    -0.343726267179E+03    0.48014E-01    0.00000E+00  7488   0.143E+01 0.000E+00
CGA:   2    -0.343747329388E+03   -0.21062E-01   -0.21441E-01  7488   0.969E-01-0.210E-01
CGA:   3    -0.343753492575E+03   -0.61632E-02   -0.61581E-02  7488   0.194E+00 0.272E-03
CGA:   4    -0.343762671828E+03   -0.91793E-02   -0.91793E-02  7488   0.151E+00 0.284E-04
CGA:   5    -0.343768572833E+03   -0.59010E-02   -0.58953E-02  7488   0.469E-01-0.913E-04
CGA:   6    -0.343771603067E+03   -0.30302E-02   -0.30261E-02  7488   0.325E-01 0.213E-03
CGA:   7    -0.343772625075E+03   -0.10220E-02   -0.10220E-02  7488   0.206E-01 0.151E-05
CGA:   8    -0.343773469685E+03   -0.84461E-03   -0.84448E-03  7488   0.124E-01-0.100E-05
CGA:   9    -0.343774096149E+03   -0.62646E-03   -0.62648E-03  7488   0.718E-02-0.803E-05
CGA:  10    -0.343774301744E+03   -0.20559E-03   -0.20557E-03  7488   0.251E-02-0.108E-05
CGA:  11    -0.343774408248E+03   -0.10650E-03   -0.10651E-03  7488   0.130E-02 0.874E-06
CGA:  12    -0.343774488905E+03   -0.80657E-04   -0.80625E-04  7488   0.181E-02 0.230E-05
CGA:  13    -0.343774548954E+03   -0.60050E-04   -0.60053E-04  7488   0.817E-03 0.683E-07
CGA:  14    -0.343774577184E+03   -0.28230E-04   -0.28227E-04  7488   0.195E-03-0.106E-06
CGA:  15    -0.343774592688E+03   -0.15504E-04   -0.15479E-04  7488   0.426E-03 0.777E-06
CGA:  16    -0.343774610488E+03   -0.17800E-04   -0.17811E-04  7488   0.217E-03 0.161E-05
CGA:  17    -0.343774617511E+03   -0.70237E-05   -0.70272E-05  7488   0.568E-04 0.143E-06
  58 F= -.34377462E+03 E0= -.34375342E+03  d E =-.327226E-03  mag=    20.0000
       N       E                     dE             d eps       ncg     rms          ort
SDA:   1    -0.343763673647E+03    0.10937E-01    0.00000E+00  7488   0.314E+00 0.000E+00
CGA:   2    -0.343768237613E+03   -0.45640E-02   -0.45799E-02  7488   0.299E-01-0.878E-03
CGA:   3    -0.343770462619E+03   -0.22250E-02   -0.22250E-02  7488   0.503E-01 0.828E-07
CGA:   4    -0.343772853159E+03   -0.23905E-02   -0.23905E-02  7488   0.398E-01-0.115E-05
CGA:   5    -0.343774097977E+03   -0.12448E-02   -0.12448E-02  7488   0.838E-02 0.335E-05
CGA:   6    -0.343775032707E+03   -0.93473E-03   -0.93393E-03  7488   0.120E-01 0.142E-04
CGA:   7    -0.343775404358E+03   -0.37165E-03   -0.37158E-03  7488   0.608E-02-0.182E-06
CGA:   8    -0.343775600425E+03   -0.19607E-03   -0.19604E-03  7488   0.319E-02 0.522E-06
CGA:   9    -0.343775760730E+03   -0.16030E-03   -0.16032E-03  7488   0.917E-03-0.431E-05
CGA:  10    -0.343775805867E+03   -0.45137E-04   -0.45140E-04  7488   0.785E-03-0.243E-05
CGA:  11    -0.343775838297E+03   -0.32431E-04   -0.32415E-04  7488   0.695E-03-0.218E-05
CGA:  12    -0.343775869723E+03   -0.31426E-04   -0.31423E-04  7488   0.226E-03-0.148E-05
CGA:  13    -0.343775876424E+03   -0.67012E-05   -0.66817E-05  7488   0.148E-03-0.105E-05
  59 F= -.34377588E+03 E0= -.34375468E+03  d E =-.125891E-02  mag=    20.0000
