       N       E                     dE             d eps       ncg     rms          ort
DAV:   1     0.539880584379E+04    0.53988E+04   -0.25748E+05  7488   0.160E+03
DAV:   2     0.273008290836E+03   -0.51258E+04   -0.48622E+04  7488   0.451E+02
DAV:   3    -0.379184760922E+03   -0.65219E+03   -0.63747E+03  7488   0.173E+02
DAV:   4    -0.403987281072E+03   -0.24803E+02   -0.24396E+02  7488   0.391E+01
DAV:   5    -0.404961129953E+03   -0.97385E+00   -0.96989E+00  7488   0.678E+00
SDA:   6    -0.182092112032E+03    0.22287E+03   -0.96989E+00  7488   0.145E+04 0.000E+00
CGA:   7    -0.164514532144E+03    0.17578E+02   -0.98808E+02  7488   0.489E+04-0.500E+03
CGA:   8    -0.206093435443E+03   -0.41579E+02   -0.10264E+03  7488   0.157E+04-0.525E+03
CGA:   9    -0.244768448179E+03   -0.38675E+02   -0.38022E+02  7488   0.184E+04-0.196E+04
CGA:  10    -0.218693519427E+03    0.26075E+02   -0.77585E+02  7488   0.118E+04-0.534E+03
CGA:  11    -0.301593960945E+03   -0.82900E+02   -0.17915E+02  7488   0.658E+03 0.906E+03
CGA:  12    -0.263920985598E+03    0.37673E+02   -0.32370E+02  7488   0.305E+04-0.644E+03
CGA:  13    -0.193079477505E+03    0.70842E+02   -0.13336E+03  7488   0.634E+04-0.332E+04
CGA:  14    -0.276251862134E+02    0.16545E+03   -0.31777E+03  7488   0.749E+04-0.386E+04
CGA:  15    -0.163403422443E+03   -0.13578E+03   -0.26545E+03  7488   0.251E+04-0.337E+04
CGA:  16    -0.311351429261E+03   -0.14795E+03   -0.34358E+02  7488   0.125E+04 0.719E+03
CGA:  17    -0.243843564832E+03    0.67508E+02   -0.64472E+02  7488   0.203E+04-0.533E+03
CGA:  18    -0.315697003539E+03   -0.71853E+02   -0.29104E+02  7488   0.669E+03-0.855E+03
CGA:  19    -0.309648254248E+03    0.60487E+01   -0.11962E+02  7488   0.146E+04-0.477E+03
CGA:  20    -0.273506206315E+03    0.36142E+02   -0.39111E+02  7488   0.380E+04-0.234E+04
CGA:  21    -0.644341789691E+02    0.20907E+03   -0.15694E+03  7488   0.123E+05-0.559E+04
CGA:  22    -0.740295285939E+02   -0.95953E+01   -0.52217E+03  7488   0.153E+05-0.155E+05
CGA:  23     0.286603064313E+02    0.10269E+03   -0.77475E+03  7488   0.269E+04-0.218E+04
CGA:  24    -0.294559520028E+03   -0.32322E+03   -0.46750E+02  7488   0.117E+04-0.171E+04
CGA:  25    -0.304978658317E+03   -0.10419E+02   -0.32170E+02  7488   0.204E+04-0.117E+04
CGA:  26    -0.274850587577E+03    0.30128E+02   -0.53917E+02  7488   0.499E+04-0.212E+04
CGA:  27    -0.122458756722E+03    0.15239E+03   -0.17168E+03  7488   0.131E+05-0.692E+04
CGA:  28    -0.137560134669E+03   -0.15101E+02   -0.45826E+03  7488   0.371E+04-0.301E+04
CGA:  29    -0.267469768165E+03   -0.12991E+03   -0.87576E+02  7488   0.442E+04-0.765E+04
CGA:  30    -0.191870060264E+03    0.75600E+02   -0.13011E+03  7488   0.497E+04-0.376E+04
CGA:  31    -0.942648074173E+02    0.97605E+02   -0.14251E+03  7488   0.161E+05-0.120E+05
CGA:  32    -0.105164876341E+03   -0.10900E+02   -0.51490E+03  7488   0.311E+04-0.261E+04
CGA:  33    -0.317836585152E+03   -0.21267E+03   -0.57866E+02  7488   0.804E+03-0.105E+04
CGA:  34    -0.298743941118E+03    0.19093E+02   -0.79147E+01  7488   0.326E+04-0.790E+03
CGA:  35    -0.175716035225E+03    0.12303E+03   -0.77115E+02  7488   0.608E+04-0.271E+04
CGA:  36    -0.185985969346E+03   -0.10270E+02   -0.14069E+03  7488   0.783E+04-0.770E+04
CGA:  37    -0.162404870965E+03    0.23581E+02   -0.19870E+03  7488   0.667E+04-0.580E+04
CGA:  38    -0.240876213805E+03   -0.78471E+02   -0.13551E+03  7488   0.390E+04-0.522E+04
CGA:  39    -0.204045467485E+03    0.36831E+02   -0.92663E+02  7488   0.133E+05-0.114E+05
CGA:  40    -0.181301946858E+03    0.22744E+02   -0.32846E+03  7488   0.843E+04-0.757E+04
CGA:  41    -0.168574442819E+03    0.12728E+02   -0.21392E+03  7488   0.719E+04-0.649E+04
CGA:  42    -0.262905468077E+03   -0.94331E+02   -0.13468E+03  7488   0.306E+04-0.456E+04
CGA:  43    -0.328541266625E+03   -0.65636E+02   -0.52547E+02  7488   0.675E+03-0.121E+04
CGA:  44    -0.333978785109E+03   -0.54375E+01   -0.44085E+01  7488   0.124E+04 0.839E+02
CGA:  45    -0.311636012229E+03    0.22343E+02   -0.26387E+02  7488   0.880E+03-0.611E+03
CGA:  46    -0.313013100659E+03   -0.13771E+01   -0.10338E+02  7488   0.238E+04 0.246E+03
CGA:  47    -0.306443545698E+03    0.65696E+01   -0.67198E+02  7488   0.112E+04-0.725E+03
CGA:  48    -0.328977604082E+03   -0.22534E+02   -0.16516E+02  7488   0.319E+03 0.713E+02
CGA:  49    -0.338606022683E+03   -0.96284E+01   -0.64677E+01  7488   0.834E+02 0.118E+03
CGA:  50    -0.340299106772E+03   -0.16931E+01   -0.12211E+01  7488   0.253E+02 0.339E+02
CGA:  51    -0.340738226121E+03   -0.43912E+00   -0.41539E+00  7488   0.106E+02 0.270E+00
CGA:  52    -0.340876362010E+03   -0.13814E+00   -0.14072E+00  7488   0.871E+01-0.170E+00
CGA:  53    -0.341022163223E+03   -0.14580E+00   -0.14377E+00  7488   0.135E+02 0.970E-01
CGA:  54    -0.341342526302E+03   -0.32036E+00   -0.30562E+00  7488   0.288E+02 0.167E+00
CGA:  55    -0.341738242331E+03   -0.39572E+00   -0.39120E+00  7488   0.331E+02-0.146E+01
CGA:  56    -0.341985365899E+03   -0.24712E+00   -0.37297E+00  7488   0.305E+02-0.918E+01
CGA:  57    -0.342126876695E+03   -0.14151E+00   -0.21713E+00  7488   0.228E+02-0.664E+01
CGA:  58    -0.342286699390E+03   -0.15982E+00   -0.13000E+00  7488   0.151E+02 0.324E+01
CGA:  59    -0.342410238709E+03   -0.12354E+00   -0.10605E+00  7488   0.849E+01 0.223E+01
CGA:  60    -0.342488645230E+03   -0.78407E-01   -0.80593E-01  7488   0.829E+01-0.246E+00
CGA:  61    -0.342554995466E+03   -0.66350E-01   -0.70252E-01  7488   0.892E+01-0.378E+00
CGA:  62    -0.342617501505E+03   -0.62506E-01   -0.71472E-01  7488   0.820E+01-0.856E+00
CGA:  63    -0.342681718391E+03   -0.64217E-01   -0.74797E-01  7488   0.933E+01-0.722E+00
CGA:  64    -0.342780249597E+03   -0.98531E-01   -0.10566E+00  7488   0.105E+02-0.324E+00
CGA:  65    -0.342894085686E+03   -0.11384E+00   -0.12082E+00  7488   0.973E+01-0.397E+00
CGA:  66    -0.343033697398E+03   -0.13961E+00   -0.14474E+00  7488   0.127E+02-0.698E-01
CGA:  67    -0.343214107093E+03   -0.18041E+00   -0.16389E+00  7488   0.119E+02 0.556E+00
CGA:  68    -0.343322950110E+03   -0.10884E+00   -0.10495E+00  7488   0.717E+01 0.201E+00
CGA:  69    -0.343378125583E+03   -0.55175E-01   -0.55117E-01  7488   0.409E+01-0.175E-01
CGA:  70    -0.343411169714E+03   -0.33044E-01   -0.33189E-01  7488   0.307E+01-0.233E-01
CGA:  71    -0.343440762743E+03   -0.29593E-01   -0.30154E-01  7488   0.322E+01-0.397E-01
CGA:  72    -0.343475404542E+03   -0.34642E-01   -0.35086E-01  7488   0.379E+01-0.210E-01
SDA:  73    -0.343517145974E+03   -0.41741E-01   -0.41852E-01  7488   0.447E+01-0.433E-02
CGA:  74    -0.343635885083E+03   -0.11874E+00   -0.11841E+00  7488   0.846E+00 0.406E-01
CGA:  75    -0.343687222345E+03   -0.51337E-01   -0.51134E-01  7488   0.171E+01 0.544E-02
CGA:  76    -0.343814670319E+03   -0.12745E+00   -0.11849E+00  7488   0.133E+01 0.211E+00
CGA:  77    -0.343871874298E+03   -0.57204E-01   -0.57468E-01  7488   0.616E+00-0.173E-01
CGA:  78    -0.343904850585E+03   -0.32976E-01   -0.32930E-01  7488   0.555E+00 0.119E-02
CGA:  79    -0.343963078327E+03   -0.58228E-01   -0.58866E-01  7488   0.205E+01-0.158E-01
CGA:  80    -0.344058270428E+03   -0.95192E-01   -0.92543E-01  7488   0.759E+00 0.138E+00
CGA:  81    -0.344079431917E+03   -0.21161E-01   -0.21364E-01  7488   0.260E+00 0.106E-01
CGA:  82    -0.344092247202E+03   -0.12815E-01   -0.12738E-01  7488   0.241E+00 0.393E-02
CGA:  83    -0.344116645052E+03   -0.24398E-01   -0.24796E-01  7488   0.419E+00-0.712E-02
CGA:  84    -0.344141671667E+03   -0.25027E-01   -0.25483E-01  7488   0.268E+00-0.161E-01
CGA:  85    -0.344150307853E+03   -0.86362E-02   -0.86602E-02  7488   0.105E+00 0.257E-02
CGA:  86    -0.344156109265E+03   -0.58014E-02   -0.58278E-02  7488   0.161E+00-0.121E-02
CGA:  87    -0.344177367625E+03   -0.21258E-01   -0.22425E-01  7488   0.227E+00-0.148E-01
CGA:  88    -0.344183670031E+03   -0.63024E-02   -0.63921E-02  7488   0.738E-01 0.641E-03
CGA:  89    -0.344187138049E+03   -0.34680E-02   -0.34643E-02  7488   0.590E-01 0.544E-03
CGA:  90    -0.344190812350E+03   -0.36743E-02   -0.36660E-02  7488   0.790E-01 0.361E-03
CGA:  91    -0.344197330197E+03   -0.65178E-02   -0.66799E-02  7488   0.120E+00-0.398E-02
CGA:  92    -0.344202363339E+03   -0.50331E-02   -0.50300E-02  7488   0.878E-01-0.942E-03
CGA:  93    -0.344205939749E+03   -0.35764E-02   -0.35797E-02  7488   0.536E-01 0.328E-03
CGA:  94    -0.344208099387E+03   -0.21596E-02   -0.21603E-02  7488   0.315E-01 0.828E-04
CGA:  95    -0.344209511038E+03   -0.14117E-02   -0.14116E-02  7488   0.331E-01-0.924E-04
CGA:  96    -0.344212634663E+03   -0.31236E-02   -0.31748E-02  7488   0.887E-01-0.105E-02
CGA:  97    -0.344215947664E+03   -0.33130E-02   -0.32976E-02  7488   0.327E-01-0.368E-03
CGA:  98    -0.344216736362E+03   -0.78870E-03   -0.78513E-03  7488   0.126E-01 0.467E-04
CGA:  99    -0.344217403541E+03   -0.66718E-03   -0.66779E-03  7488   0.199E-01-0.818E-04
CGA: 100    -0.344218467213E+03   -0.10637E-02   -0.10659E-02  7488   0.277E-01-0.244E-03
CGA: 101    -0.344219718298E+03   -0.12511E-02   -0.12503E-02  7488   0.275E-01-0.473E-03
CGA: 102    -0.344220572840E+03   -0.85454E-03   -0.84182E-03  7488   0.153E-01-0.120E-03
CGA: 103    -0.344221052419E+03   -0.47958E-03   -0.47853E-03  7488   0.115E-01-0.630E-04
SDA: 104    -0.344221489124E+03   -0.43671E-03   -0.43685E-03  7488   0.981E-02-0.163E-04
CGA: 105    -0.344221945441E+03   -0.45632E-03   -0.45628E-03  7488   0.815E-02 0.241E-04
CGA: 106    -0.344222959678E+03   -0.10142E-02   -0.10038E-02  7488   0.203E-01 0.133E-03
CGA: 107    -0.344223955381E+03   -0.99570E-03   -0.99550E-03  7488   0.112E-01-0.899E-04
CGA: 108    -0.344224641890E+03   -0.68651E-03   -0.68499E-03  7488   0.822E-02 0.986E-04
CGA: 109    -0.344225146231E+03   -0.50434E-03   -0.50586E-03  7488   0.703E-02-0.884E-04
CGA: 110    -0.344225478180E+03   -0.33195E-03   -0.33202E-03  7488   0.536E-02 0.539E-05
CGA: 111    -0.344225937217E+03   -0.45904E-03   -0.46346E-03  7488   0.430E-02-0.119E-03
CGA: 112    -0.344226127260E+03   -0.19004E-03   -0.18958E-03  7488   0.418E-03-0.425E-04
CGA: 113    -0.344226170838E+03   -0.43578E-04   -0.44153E-04  7488   0.111E-02-0.119E-04
CGA: 114    -0.344226249129E+03   -0.78291E-04   -0.78673E-04  7488   0.121E-02-0.208E-04
CGA: 115    -0.344226283428E+03   -0.34299E-04   -0.33819E-04  7488   0.115E-03-0.186E-05
CGA: 116    -0.344226314579E+03   -0.31151E-04   -0.57546E-07  7488   0.107E-02-0.336E-04
CGA: 117    -0.344226332603E+03   -0.18024E-04   -0.13717E-04  7488   0.640E-03 0.206E-03
CGA: 118    -0.344226346808E+03   -0.14205E-04   -0.13326E-04  7488   0.241E-03 0.355E-04
CGA: 119    -0.344226353826E+03   -0.70185E-05   -0.68738E-05  7488   0.199E-03 0.595E-06
   1 F= -.34422635E+03 E0= -.34420942E+03  d E =-.344226E+03  mag=    20.0000
       N       E                     dE             d eps       ncg     rms          ort
SDA:   1    -0.343988227296E+03    0.23812E+00    0.00000E+00  7488   0.137E+02 0.000E+00
CGA:   2    -0.344220955004E+03   -0.23273E+00   -0.23994E+00  7488   0.774E-01-0.353E+00
CGA:   3    -0.344223268492E+03   -0.23135E-02   -0.23246E-02  7488   0.203E-01-0.239E-03
CGA:   4    -0.344224751875E+03   -0.14834E-02   -0.14837E-02  7488   0.372E-01 0.342E-04
CGA:   5    -0.344227034972E+03   -0.22831E-02   -0.22824E-02  7488   0.168E-01-0.275E-05
CGA:   6    -0.344227554807E+03   -0.51984E-03   -0.52016E-03  7488   0.654E-02-0.111E-05
CGA:   7    -0.344227937454E+03   -0.38265E-03   -0.38264E-03  7488   0.807E-02 0.653E-05
CGA:   8    -0.344228442660E+03   -0.50521E-03   -0.50539E-03  7488   0.198E-02 0.147E-04
CGA:   9    -0.344228503505E+03   -0.60845E-04   -0.60847E-04  7488   0.611E-03 0.795E-06
CGA:  10    -0.344228561661E+03   -0.58157E-04   -0.58253E-04  7488   0.111E-02-0.399E-05
CGA:  11    -0.344228604510E+03   -0.42849E-04   -0.42741E-04  7488   0.147E-03-0.326E-05
CGA:  12    -0.344228610378E+03   -0.58687E-05   -0.58688E-05  7488   0.140E-03-0.996E-07
CGA:  13    -0.344228620493E+03   -0.10115E-04   -0.10114E-04  7488   0.141E-03 0.431E-06
CGA:  14    -0.344228627652E+03   -0.71589E-05   -0.71569E-05  7488   0.571E-04-0.724E-07
   2 F= -.34422863E+03 E0= -.34421176E+03  d E =-.227383E-02  mag=    20.0000
       N       E                     dE             d eps       ncg     rms          ort
SDA:   1    -0.344072198897E+03    0.15642E+00    0.00000E+00  7488   0.583E+00 0.000E+00
CGA:   2    -0.344104013671E+03   -0.31815E-01   -0.31865E-01  7488   0.973E+00 0.119E-02
CGA:   3    -0.344184356133E+03   -0.80342E-01   -0.80335E-01  7488   0.651E+00 0.334E-03
CGA:   4    -0.344208181132E+03   -0.23825E-01   -0.23419E-01  7488   0.218E+00 0.510E-02
CGA:   5    -0.344217703473E+03   -0.95223E-02   -0.95058E-02  7488   0.210E+00 0.793E-04
CGA:   6    -0.344231407997E+03   -0.13705E-01   -0.13705E-01  7488   0.978E-01-0.264E-03
CGA:   7    -0.344234977463E+03   -0.35695E-02   -0.35772E-02  7488   0.219E-01-0.546E-04
CGA:   8    -0.344236573111E+03   -0.15956E-02   -0.15951E-02  7488   0.188E-01 0.343E-04
CGA:   9    -0.344237593127E+03   -0.10200E-02   -0.10202E-02  7488   0.781E-02 0.171E-05
CGA:  10    -0.344237981148E+03   -0.38802E-03   -0.38798E-03  7488   0.715E-02-0.241E-05
CGA:  11    -0.344238305515E+03   -0.32437E-03   -0.32433E-03  7488   0.152E-02-0.291E-05
CGA:  12    -0.344238436271E+03   -0.13076E-03   -0.13077E-03  7488   0.271E-02-0.163E-06
CGA:  13    -0.344238562045E+03   -0.12577E-03   -0.12590E-03  7488   0.171E-02 0.289E-05
CGA:  14    -0.344238617481E+03   -0.55436E-04   -0.55545E-04  7488   0.275E-03 0.938E-06
CGA:  15    -0.344238650077E+03   -0.32595E-04   -0.32539E-04  7488   0.535E-03 0.785E-06
CGA:  16    -0.344238681322E+03   -0.31245E-04   -0.31247E-04  7488   0.327E-03 0.518E-07
CGA:  17    -0.344238692252E+03   -0.10930E-04   -0.10925E-04  7488   0.103E-03-0.212E-06
CGA:  18    -0.344238703330E+03   -0.11078E-04   -0.11053E-04  7488   0.152E-03 0.478E-06
CGA:  19    -0.344238711091E+03   -0.77610E-05   -0.77640E-05  7488   0.115E-03 0.106E-06
   3 F= -.34423871E+03 E0= -.34422201E+03  d E =-.100834E-01  mag=    20.0000
       N       E                     dE             d eps       ncg     rms          ort
SDA:   1    -0.340546322064E+03    0.36924E+01    0.00000E+00  7488   0.159E+02 0.000E+00
CGA:   2    -0.341170108977E+03   -0.62379E+00   -0.62569E+00  7488   0.160E+02-0.265E-01
CGA:   3    -0.342984711610E+03   -0.18146E+01   -0.18267E+01  7488   0.205E+02-0.406E+00
CGA:   4    -0.343587113474E+03   -0.60240E+00   -0.55040E+00  7488   0.464E+01 0.145E+01
CGA:   5    -0.343768311374E+03   -0.18120E+00   -0.15897E+00  7488   0.323E+01 0.406E+00
CGA:   6    -0.343984035353E+03   -0.21572E+00   -0.21572E+00  7488   0.462E+01-0.118E-01
CGA:   7    -0.344139372902E+03   -0.15534E+00   -0.15920E+00  7488   0.196E+01-0.343E-01
CGA:   8    -0.344180043072E+03   -0.40670E-01   -0.42497E-01  7488   0.403E+00-0.562E-01
CGA:   9    -0.344201869293E+03   -0.21826E-01   -0.21842E-01  7488   0.626E+00 0.287E-02
CGA:  10    -0.344226282795E+03   -0.24414E-01   -0.24366E-01  7488   0.241E+00 0.225E-03
CGA:  11    -0.344235722082E+03   -0.94393E-02   -0.95928E-02  7488   0.147E+00 0.762E-03
CGA:  12    -0.344242323819E+03   -0.66017E-02   -0.66002E-02  7488   0.102E+00-0.335E-04
CGA:  13    -0.344245650086E+03   -0.33263E-02   -0.33296E-02  7488   0.384E-01-0.349E-04
CGA:  14    -0.344247855617E+03   -0.22055E-02   -0.22036E-02  7488   0.533E-01 0.386E-03
CGA:  15    -0.344250968713E+03   -0.31131E-02   -0.31129E-02  7488   0.329E-01 0.264E-04
CGA:  16    -0.344251890462E+03   -0.92175E-03   -0.92654E-03  7488   0.798E-02-0.828E-04
CGA:  17    -0.344252261886E+03   -0.37142E-03   -0.37191E-03  7488   0.858E-02 0.258E-04
CGA:  18    -0.344252982535E+03   -0.72065E-03   -0.71942E-03  7488   0.131E-01 0.293E-04
CGA:  19    -0.344253525972E+03   -0.54344E-03   -0.54479E-03  7488   0.295E-02 0.175E-04
CGA:  20    -0.344253625701E+03   -0.99729E-04   -0.99851E-04  7488   0.216E-02-0.115E-05
CGA:  21    -0.344253820127E+03   -0.19443E-03   -0.19382E-03  7488   0.363E-02 0.130E-04
CGA:  22    -0.344254019048E+03   -0.19892E-03   -0.19893E-03  7488   0.211E-02 0.164E-04
CGA:  23    -0.344254129369E+03   -0.11032E-03   -0.11033E-03  7488   0.216E-02 0.939E-06
CGA:  24    -0.344254221524E+03   -0.92155E-04   -0.92190E-04  7488   0.709E-03 0.512E-06
CGA:  25    -0.344254256667E+03   -0.35143E-04   -0.35154E-04  7488   0.920E-03 0.157E-05
CGA:  26    -0.344254346197E+03   -0.89530E-04   -0.89080E-04  7488   0.123E-02 0.968E-05
CGA:  27    -0.344254404850E+03   -0.58653E-04   -0.58650E-04  7488   0.474E-03-0.833E-07
CGA:  28    -0.344254420405E+03   -0.15555E-04   -0.15542E-04  7488   0.269E-03-0.596E-06
CGA:  29    -0.344254448269E+03   -0.27863E-04   -0.27880E-04  7488   0.673E-03-0.900E-06
CGA:  30    -0.344254489105E+03   -0.40837E-04   -0.40840E-04  7488   0.320E-03-0.907E-06
CGA:  31    -0.344254502064E+03   -0.12959E-04   -0.12963E-04  7488   0.215E-03-0.548E-06
SDA:  32    -0.344254516223E+03   -0.14159E-04   -0.14157E-04  7488   0.216E-03-0.112E-06
CGA:  33    -0.344254521906E+03   -0.56830E-05   -0.56897E-05  7488   0.871E-04-0.211E-06
   4 F= -.34425452E+03 E0= -.34423843E+03  d E =-.158108E-01  mag=    20.0000
       N       E                     dE             d eps       ncg     rms          ort
SDA:   1    -0.343832073323E+03    0.42244E+00    0.00000E+00  7488   0.159E+01 0.000E+00
CGA:   2    -0.343918776818E+03   -0.86703E-01   -0.86650E-01  7488   0.225E+01-0.956E-02
CGA:   3    -0.344088613104E+03   -0.16984E+00   -0.16969E+00  7488   0.236E+01 0.541E-02
CGA:   4    -0.344177955364E+03   -0.89342E-01   -0.88236E-01  7488   0.510E+00 0.512E-02
CGA:   5    -0.344204526219E+03   -0.26571E-01   -0.26518E-01  7488   0.471E+00-0.445E-02
CGA:   6    -0.344234337032E+03   -0.29811E-01   -0.29803E-01  7488   0.344E+00 0.703E-03
CGA:   7    -0.344245791462E+03   -0.11454E-01   -0.11490E-01  7488   0.559E-01-0.249E-03
CGA:   8    -0.344249579312E+03   -0.37879E-02   -0.37889E-02  7488   0.517E-01-0.573E-04
CGA:   9    -0.344253037691E+03   -0.34584E-02   -0.34588E-02  7488   0.147E-01-0.303E-04
CGA:  10    -0.344254066437E+03   -0.10287E-02   -0.10281E-02  7488   0.165E-01 0.341E-04
CGA:  11    -0.344254615645E+03   -0.54921E-03   -0.55027E-03  7488   0.463E-02-0.130E-04
CGA:  12    -0.344254967485E+03   -0.35184E-03   -0.35203E-03  7488   0.594E-02-0.855E-05
CGA:  13    -0.344255285246E+03   -0.31776E-03   -0.31776E-03  7488   0.353E-02-0.395E-05
CGA:  14    -0.344255397560E+03   -0.11231E-03   -0.11257E-03  7488   0.735E-03-0.433E-05
CGA:  15    -0.344255461200E+03   -0.63641E-04   -0.63606E-04  7488   0.114E-02 0.833E-06
CGA:  16    -0.344255560558E+03   -0.99357E-04   -0.99388E-04  7488   0.564E-03-0.136E-05
CGA:  17    -0.344255579302E+03   -0.18744E-04   -0.18746E-04  7488   0.224E-03-0.393E-06
CGA:  18    -0.344255596681E+03   -0.17379E-04   -0.17345E-04  7488   0.397E-03 0.148E-05
CGA:  19    -0.344255621949E+03   -0.25269E-04   -0.25256E-04  7488   0.222E-03 0.242E-05
CGA:  20    -0.344255635404E+03   -0.13455E-04   -0.13453E-04  7488   0.243E-03 0.124E-05
CGA:  21    -0.344255646146E+03   -0.10742E-04   -0.10759E-04  7488   0.919E-04 0.928E-06
CGA:  22    -0.344255652027E+03   -0.58816E-05   -0.58776E-05  7488   0.798E-04 0.599E-06
   5 F= -.34425565E+03 E0= -.34423969E+03  d E =-.113012E-02  mag=    20.0000
       N       E                     dE             d eps       ncg     rms          ort
SDA:   1    -0.344035295616E+03    0.22035E+00    0.00000E+00  7488   0.955E+00 0.000E+00
CGA:   2    -0.344073203987E+03   -0.37908E-01   -0.38064E-01  7488   0.103E+01 0.454E-03
CGA:   3    -0.344176693247E+03   -0.10349E+00   -0.10362E+00  7488   0.103E+01-0.330E-02
CGA:   4    -0.344217554966E+03   -0.40862E-01   -0.40873E-01  7488   0.298E+00 0.433E-03
CGA:   5    -0.344229659248E+03   -0.12104E-01   -0.12129E-01  7488   0.225E+00 0.232E-04
CGA:   6    -0.344246942239E+03   -0.17283E-01   -0.17265E-01  7488   0.148E+00 0.796E-03
CGA:   7    -0.344252663465E+03   -0.57212E-02   -0.56968E-02  7488   0.218E-01 0.106E-03
CGA:   8    -0.344254292890E+03   -0.16294E-02   -0.16293E-02  7488   0.328E-01 0.972E-05
CGA:   9    -0.344256011382E+03   -0.17185E-02   -0.17188E-02  7488   0.130E-01 0.177E-04
CGA:  10    -0.344256363925E+03   -0.35254E-03   -0.35407E-03  7488   0.319E-02-0.342E-04
CGA:  11    -0.344256750927E+03   -0.38700E-03   -0.38701E-03  7488   0.457E-02-0.548E-06
CGA:  12    -0.344256940858E+03   -0.18993E-03   -0.18996E-03  7488   0.214E-02-0.430E-05
CGA:  13    -0.344257026035E+03   -0.85177E-04   -0.85127E-04  7488   0.744E-03-0.269E-05
CGA:  14    -0.344257086772E+03   -0.60737E-04   -0.60754E-04  7488   0.551E-03-0.115E-05
CGA:  15    -0.344257113711E+03   -0.26939E-04   -0.26936E-04  7488   0.558E-03-0.760E-06
CGA:  16    -0.344257147724E+03   -0.34013E-04   -0.34013E-04  7488   0.381E-03-0.100E-05
CGA:  17    -0.344257162870E+03   -0.15146E-04   -0.15154E-04  7488   0.846E-04 0.890E-07
CGA:  18    -0.344257170332E+03   -0.74615E-05   -0.74433E-05  7488   0.176E-03 0.352E-06
CGA:  19    -0.344257183525E+03   -0.13193E-04   -0.13175E-04  7488   0.133E-03 0.101E-05
CGA:  20    -0.344257188145E+03   -0.46201E-05   -0.46294E-05  7488   0.370E-04 0.111E-06
   6 F= -.34425719E+03 E0= -.34424130E+03  d E =-.153612E-02  mag=    20.0000
       N       E                     dE             d eps       ncg     rms          ort
SDA:   1    -0.339289673811E+03    0.49675E+01    0.00000E+00  7488   0.194E+02 0.000E+00
CGA:   2    -0.340288247303E+03   -0.99857E+00   -0.98860E+00  7488   0.254E+02-0.181E+00
CGA:   3    -0.341903515128E+03   -0.16153E+01   -0.16223E+01  7488   0.362E+02-0.932E+00
CGA:   4    -0.343197665040E+03   -0.12941E+01   -0.12503E+01  7488   0.162E+02 0.156E+01
CGA:   5    -0.343535782437E+03   -0.33812E+00   -0.34378E+00  7488   0.413E+01-0.122E+00
CGA:   6    -0.343795327601E+03   -0.25955E+00   -0.25977E+00  7488   0.676E+01-0.212E-01
CGA:   7    -0.344046606483E+03   -0.25128E+00   -0.24981E+00  7488   0.338E+01 0.656E-02
CGA:   8    -0.344140306699E+03   -0.93700E-01   -0.95883E-01  7488   0.887E+00-0.379E-01
CGA:   9    -0.344162987074E+03   -0.22680E-01   -0.23319E-01  7488   0.517E+00-0.118E-01
CGA:  10    -0.344207505649E+03   -0.44519E-01   -0.44610E-01  7488   0.606E+00-0.234E-02
CGA:  11    -0.344222879026E+03   -0.15373E-01   -0.16097E-01  7488   0.189E+00-0.130E-01
CGA:  12    -0.344229718043E+03   -0.68390E-02   -0.68938E-02  7488   0.106E+00 0.221E-03
CGA:  13    -0.344235607183E+03   -0.58891E-02   -0.58886E-02  7488   0.999E-01 0.967E-04
CGA:  14    -0.344239806644E+03   -0.41995E-02   -0.42449E-02  7488   0.566E-01 0.113E-02
CGA:  15    -0.344242677498E+03   -0.28709E-02   -0.28715E-02  7488   0.463E-01 0.130E-03
CGA:  16    -0.344244372011E+03   -0.16945E-02   -0.17008E-02  7488   0.164E-01 0.176E-04
CGA:  17    -0.344244978273E+03   -0.60626E-03   -0.60772E-03  7488   0.780E-02 0.228E-05
CGA:  18    -0.344245708813E+03   -0.73054E-03   -0.73070E-03  7488   0.152E-01-0.658E-05
CGA:  19    -0.344246380225E+03   -0.67141E-03   -0.67458E-03  7488   0.697E-02 0.117E-03
CGA:  20    -0.344246591110E+03   -0.21088E-03   -0.21174E-03  7488   0.162E-02-0.983E-05
CGA:  21    -0.344246708625E+03   -0.11751E-03   -0.11739E-03  7488   0.298E-02 0.237E-05
CGA:  22    -0.344246952227E+03   -0.24360E-03   -0.24188E-03  7488   0.287E-02 0.501E-04
CGA:  23    -0.344247059528E+03   -0.10730E-03   -0.10743E-03  7488   0.715E-03 0.186E-05
CGA:  24    -0.344247086270E+03   -0.26742E-04   -0.26784E-04  7488   0.601E-03 0.113E-05
CGA:  25    -0.344247151500E+03   -0.65230E-04   -0.64780E-04  7488   0.841E-03 0.762E-05
CGA:  26    -0.344247191380E+03   -0.39880E-04   -0.39914E-04  7488   0.302E-03 0.326E-05
CGA:  27    -0.344247202462E+03   -0.11082E-04   -0.11105E-04  7488   0.176E-03 0.359E-06
CGA:  28    -0.344247215965E+03   -0.13503E-04   -0.13482E-04  7488   0.203E-03 0.495E-06
CGA:  29    -0.344247224713E+03   -0.87485E-05   -0.87600E-05  7488   0.151E-03 0.501E-06
CGA:  30    -0.344247235520E+03   -0.10806E-04   -0.10786E-04  7488   0.108E-03 0.810E-06
CGA:  31    -0.344247240924E+03   -0.54049E-05   -0.54072E-05  7488   0.543E-04 0.834E-07
   7 F= -.34424724E+03 E0= -.34423162E+03  d E =0.994722E-02  mag=    20.0000
       N       E                     dE             d eps       ncg     rms          ort
SDA:   1    -0.337575639292E+03    0.66716E+01    0.00000E+00  7488   0.247E+02 0.000E+00
CGA:   2    -0.338965095127E+03   -0.13895E+01   -0.13862E+01  7488   0.354E+02 0.108E+01
CGA:   3    -0.341566954076E+03   -0.26019E+01   -0.26266E+01  7488   0.389E+02-0.147E+01
CGA:   4    -0.342907249538E+03   -0.13403E+01   -0.11131E+01  7488   0.704E+01 0.314E+01
CGA:   5    -0.343269928758E+03   -0.36268E+00   -0.36499E+00  7488   0.105E+02 0.142E+00
CGA:   6    -0.343853502596E+03   -0.58357E+00   -0.58374E+00  7488   0.590E+01-0.160E+00
CGA:   7    -0.344011388666E+03   -0.15789E+00   -0.15471E+00  7488   0.183E+01 0.700E-01
CGA:   8    -0.344070146522E+03   -0.58758E-01   -0.57643E-01  7488   0.982E+00 0.137E-01
CGA:   9    -0.344123511598E+03   -0.53365E-01   -0.53359E-01  7488   0.114E+01 0.142E-02
CGA:  10    -0.344162741460E+03   -0.39230E-01   -0.39840E-01  7488   0.507E+00 0.159E-02
CGA:  11    -0.344179088527E+03   -0.16347E-01   -0.16578E-01  7488   0.248E+00-0.437E-03
CGA:  12    -0.344192975938E+03   -0.13887E-01   -0.13877E-01  7488   0.210E+00 0.103E-02
CGA:  13    -0.344198859463E+03   -0.58835E-02   -0.60172E-02  7488   0.779E-01-0.139E-02
CGA:  14    -0.344205461661E+03   -0.66022E-02   -0.64266E-02  7488   0.137E+00 0.456E-02
CGA:  15    -0.344210276602E+03   -0.48149E-02   -0.47931E-02  7488   0.198E-01-0.871E-05
CGA:  16    -0.344211099295E+03   -0.82269E-03   -0.82525E-03  7488   0.167E-01 0.912E-04
CGA:  17    -0.344212601274E+03   -0.15020E-02   -0.15009E-02  7488   0.300E-01 0.208E-04
CGA:  18    -0.344213723513E+03   -0.11222E-02   -0.11289E-02  7488   0.781E-02 0.662E-04
CGA:  19    -0.344213970699E+03   -0.24719E-03   -0.24793E-03  7488   0.301E-02-0.320E-05
CGA:  20    -0.344214255357E+03   -0.28466E-03   -0.28453E-03  7488   0.625E-02-0.702E-07
CGA:  21    -0.344214681754E+03   -0.42640E-03   -0.42348E-03  7488   0.366E-02 0.134E-03
CGA:  22    -0.344214780519E+03   -0.98765E-04   -0.98830E-04  7488   0.859E-03-0.126E-05
CGA:  23    -0.344214842992E+03   -0.62474E-04   -0.62472E-04  7488   0.178E-02-0.108E-05
CGA:  24    -0.344214981185E+03   -0.13819E-03   -0.13804E-03  7488   0.812E-03 0.416E-05
CGA:  25    -0.344215008010E+03   -0.26825E-04   -0.26823E-04  7488   0.239E-03-0.830E-06
CGA:  26    -0.344215027843E+03   -0.19833E-04   -0.19770E-04  7488   0.459E-03 0.148E-05
CGA:  27    -0.344215056143E+03   -0.28300E-04   -0.28283E-04  7488   0.325E-03 0.224E-05
CGA:  28    -0.344215066728E+03   -0.10586E-04   -0.10620E-04  7488   0.946E-04 0.902E-06
CGA:  29    -0.344215071843E+03   -0.51153E-05   -0.51150E-05  7488   0.108E-03 0.309E-06
CGA:  30    -0.344215083965E+03   -0.12122E-04   -0.12031E-04  7488   0.128E-03 0.121E-05
CGA:  31    -0.344215088716E+03   -0.47510E-05   -0.47613E-05  7488   0.403E-04 0.176E-06
   8 F= -.34421509E+03 E0= -.34419877E+03  d E =0.321522E-01  mag=    20.0000
       N       E                     dE             d eps       ncg     rms          ort
SDA:   1    -0.339175003709E+03    0.50401E+01    0.00000E+00  7488   0.171E+02 0.000E+00
CGA:   2    -0.340351158894E+03   -0.11762E+01   -0.11993E+01  7488   0.341E+02-0.122E+01
CGA:   3    -0.342366667946E+03   -0.20155E+01   -0.20332E+01  7488   0.335E+02-0.166E+01
CGA:   4    -0.343252124666E+03   -0.88546E+00   -0.96826E+00  7488   0.634E+01-0.100E+01
CGA:   5    -0.343545444815E+03   -0.29332E+00   -0.29320E+00  7488   0.875E+01-0.215E-02
CGA:   6    -0.344012429439E+03   -0.46698E+00   -0.46630E+00  7488   0.385E+01-0.154E+00
CGA:   7    -0.344107984753E+03   -0.95555E-01   -0.96641E-01  7488   0.125E+01-0.233E-01
CGA:   8    -0.344158558986E+03   -0.50574E-01   -0.50574E-01  7488   0.692E+00 0.517E-03
CGA:   9    -0.344218430104E+03   -0.59871E-01   -0.59970E-01  7488   0.552E+00-0.262E-02
CGA:  10    -0.344236085032E+03   -0.17655E-01   -0.18033E-01  7488   0.209E+00-0.247E-02
CGA:  11    -0.344244173282E+03   -0.80882E-02   -0.80835E-02  7488   0.163E+00 0.422E-05
CGA:  12    -0.344252464038E+03   -0.82908E-02   -0.82980E-02  7488   0.735E-01 0.167E-02
CGA:  13    -0.344257595017E+03   -0.51310E-02   -0.51119E-02  7488   0.730E-01 0.867E-03
CGA:  14    -0.344261748285E+03   -0.41533E-02   -0.41536E-02  7488   0.302E-01-0.667E-04
CGA:  15    -0.344262557379E+03   -0.80909E-03   -0.81618E-03  7488   0.946E-02-0.129E-03
CGA:  16    -0.344263607203E+03   -0.10498E-02   -0.10527E-02  7488   0.221E-01-0.518E-04
CGA:  17    -0.344264470414E+03   -0.86321E-03   -0.86742E-03  7488   0.886E-02 0.400E-04
CGA:  18    -0.344264788833E+03   -0.31842E-03   -0.31945E-03  7488   0.187E-02 0.116E-05
CGA:  19    -0.344265016513E+03   -0.22768E-03   -0.22728E-03  7488   0.450E-02 0.319E-05
CGA:  20    -0.344265292181E+03   -0.27567E-03   -0.27546E-03  7488   0.283E-02 0.289E-04
CGA:  21    -0.344265376142E+03   -0.83962E-04   -0.83989E-04  7488   0.809E-03-0.666E-06
CGA:  22    -0.344265450469E+03   -0.74326E-04   -0.74128E-04  7488   0.153E-02 0.431E-05
CGA:  23    -0.344265515733E+03   -0.65264E-04   -0.65293E-04  7488   0.760E-03 0.129E-05
CGA:  24    -0.344265569895E+03   -0.54161E-04   -0.54159E-04  7488   0.598E-03-0.300E-06
CGA:  25    -0.344265599801E+03   -0.29906E-04   -0.29917E-04  7488   0.233E-03 0.714E-06
CGA:  26    -0.344265614646E+03   -0.14845E-04   -0.14836E-04  7488   0.254E-03 0.968E-06
CGA:  27    -0.344265634195E+03   -0.19549E-04   -0.19519E-04  7488   0.359E-03 0.113E-05
CGA:  28    -0.344265648964E+03   -0.14768E-04   -0.14780E-04  7488   0.832E-04 0.451E-06
CGA:  29    -0.344265652914E+03   -0.39502E-05   -0.39532E-05  7488   0.945E-04-0.646E-07
   9 F= -.34426565E+03 E0= -.34424930E+03  d E =-.505642E-01  mag=    20.0000
       N       E                     dE             d eps       ncg     rms          ort
SDA:   1    -0.342642676252E+03    0.16230E+01    0.00000E+00  7488   0.730E+01 0.000E+00
CGA:   2    -0.342974438482E+03   -0.33176E+00   -0.33084E+00  7488   0.669E+01-0.158E-01
CGA:   3    -0.343605574628E+03   -0.63114E+00   -0.63061E+00  7488   0.103E+02 0.109E-01
CGA:   4    -0.343985632769E+03   -0.38006E+00   -0.37872E+00  7488   0.139E+01-0.338E-02
CGA:   5    -0.344107660237E+03   -0.12203E+00   -0.12232E+00  7488   0.261E+01-0.835E-02
CGA:   6    -0.344215208312E+03   -0.10755E+00   -0.10635E+00  7488   0.668E+00 0.135E-02
CGA:   7    -0.344235293257E+03   -0.20085E-01   -0.20282E-01  7488   0.192E+00-0.303E-02
CGA:   8    -0.344252980442E+03   -0.17687E-01   -0.17684E-01  7488   0.171E+00 0.900E-04
CGA:   9    -0.344261832279E+03   -0.88518E-02   -0.88429E-02  7488   0.575E-01-0.380E-03
CGA:  10    -0.344264693131E+03   -0.28609E-02   -0.28624E-02  7488   0.498E-01 0.672E-04
CGA:  11    -0.344266804225E+03   -0.21111E-02   -0.21184E-02  7488   0.245E-01 0.619E-04
CGA:  12    -0.344268201722E+03   -0.13975E-02   -0.13976E-02  7488   0.151E-01 0.436E-04
CGA:  13    -0.344269499192E+03   -0.12975E-02   -0.12978E-02  7488   0.692E-02-0.151E-04
CGA:  14    -0.344269727086E+03   -0.22789E-03   -0.22814E-03  7488   0.307E-02-0.801E-07
CGA:  15    -0.344269963983E+03   -0.23690E-03   -0.23676E-03  7488   0.530E-02 0.669E-05
CGA:  16    -0.344270287159E+03   -0.32318E-03   -0.32314E-03  7488   0.139E-02 0.107E-04
CGA:  17    -0.344270342333E+03   -0.55174E-04   -0.55211E-04  7488   0.832E-03-0.313E-06
CGA:  18    -0.344270410573E+03   -0.68241E-04   -0.68232E-04  7488   0.150E-02 0.671E-07
CGA:  19    -0.344270499830E+03   -0.89257E-04   -0.89256E-04  7488   0.628E-03 0.309E-05
CGA:  20    -0.344270538343E+03   -0.38513E-04   -0.38507E-04  7488   0.427E-03 0.194E-05
CGA:  21    -0.344270562132E+03   -0.23789E-04   -0.23793E-04  7488   0.386E-03 0.392E-06
CGA:  22    -0.344270579112E+03   -0.16981E-04   -0.16992E-04  7488   0.242E-03 0.309E-06
CGA:  23    -0.344270606290E+03   -0.27178E-04   -0.27103E-04  7488   0.228E-03 0.116E-05
CGA:  24    -0.344270615793E+03   -0.95026E-05   -0.95189E-05  7488   0.631E-04 0.617E-06
  10 F= -.34427062E+03 E0= -.34425484E+03  d E =-.496288E-02  mag=    20.0000
       N       E                     dE             d eps       ncg     rms          ort
SDA:   1    -0.343606914986E+03    0.66369E+00    0.00000E+00  7488   0.244E+01 0.000E+00
CGA:   2    -0.343753594352E+03   -0.14668E+00   -0.14668E+00  7488   0.341E+01 0.570E-01
CGA:   3    -0.344004288015E+03   -0.25069E+00   -0.25158E+00  7488   0.441E+01-0.498E-01
CGA:   4    -0.344157136398E+03   -0.15285E+00   -0.15057E+00  7488   0.558E+00 0.309E-01
CGA:   5    -0.344214706763E+03   -0.57570E-01   -0.57029E-01  7488   0.825E+00 0.117E-01
CGA:   6    -0.344251099107E+03   -0.36392E-01   -0.36351E-01  7488   0.261E+00-0.174E-04
CGA:   7    -0.344259772372E+03   -0.86733E-02   -0.86306E-02  7488   0.702E-01 0.541E-03
CGA:   8    -0.344264903859E+03   -0.51315E-02   -0.51282E-02  7488   0.878E-01 0.175E-03
CGA:   9    -0.344270215725E+03   -0.53119E-02   -0.53117E-02  7488   0.960E-02 0.146E-03
CGA:  10    -0.344271228953E+03   -0.10132E-02   -0.10140E-02  7488   0.172E-01-0.153E-04
CGA:  11    -0.344272258522E+03   -0.10296E-02   -0.10296E-02  7488   0.664E-02 0.114E-04
CGA:  12    -0.344272454289E+03   -0.19577E-03   -0.19587E-03  7488   0.191E-02-0.773E-06
CGA:  13    -0.344272617180E+03   -0.16289E-03   -0.16284E-03  7488   0.252E-02 0.152E-05
CGA:  14    -0.344272820079E+03   -0.20290E-03   -0.20297E-03  7488   0.124E-02-0.468E-05
CGA:  15    -0.344272852081E+03   -0.32002E-04   -0.32011E-04  7488   0.373E-03-0.194E-05
CGA:  16    -0.344272888032E+03   -0.35951E-04   -0.35912E-04  7488   0.712E-03 0.959E-06
CGA:  17    -0.344272932835E+03   -0.44802E-04   -0.44802E-04  7488   0.303E-03 0.580E-06
CGA:  18    -0.344272950630E+03   -0.17795E-04   -0.17794E-04  7488   0.218E-03-0.410E-06
CGA:  19    -0.344272960778E+03   -0.10148E-04   -0.10153E-04  7488   0.150E-03 0.156E-06
CGA:  20    -0.344272970364E+03   -0.95861E-05   -0.95849E-05  7488   0.118E-03 0.477E-06
CGA:  21    -0.344272980916E+03   -0.10553E-04   -0.10561E-04  7488   0.114E-03-0.423E-06
CGA:  22    -0.344272984963E+03   -0.40469E-05   -0.40455E-05  7488   0.399E-04-0.116E-06
  11 F= -.34427298E+03 E0= -.34425697E+03  d E =-.236917E-02  mag=    20.0000
       N       E                     dE             d eps       ncg     rms          ort
SDA:   1    -0.344208219324E+03    0.64762E-01    0.00000E+00  7488   0.281E+00 0.000E+00
CGA:   2    -0.344219849694E+03   -0.11630E-01   -0.11597E-01  7488   0.311E+00 0.119E-04
CGA:   3    -0.344249995147E+03   -0.30145E-01   -0.30182E-01  7488   0.395E+00-0.864E-03
CGA:   4    -0.344264211472E+03   -0.14216E-01   -0.14294E-01  7488   0.719E-01-0.580E-03
CGA:   5    -0.344268243868E+03   -0.40324E-02   -0.40326E-02  7488   0.772E-01 0.456E-04
CGA:   6    -0.344272615298E+03   -0.43714E-02   -0.43711E-02  7488   0.436E-01-0.442E-04
CGA:   7    -0.344274290563E+03   -0.16753E-02   -0.16719E-02  7488   0.844E-02 0.400E-06
CGA:   8    -0.344274858749E+03   -0.56819E-03   -0.56821E-03  7488   0.726E-02-0.322E-05
CGA:   9    -0.344275308966E+03   -0.45022E-03   -0.45021E-03  7488   0.240E-02 0.381E-05
CGA:  10    -0.344275498982E+03   -0.19002E-03   -0.18995E-03  7488   0.269E-02 0.230E-05
CGA:  11    -0.344275582187E+03   -0.83205E-04   -0.83207E-04  7488   0.515E-03-0.102E-05
CGA:  12    -0.344275647700E+03   -0.65512E-04   -0.65547E-04  7488   0.904E-03-0.511E-06
CGA:  13    -0.344275681845E+03   -0.34146E-04   -0.34118E-04  7488   0.237E-03-0.137E-05
CGA:  14    -0.344275689285E+03   -0.74399E-05   -0.74243E-05  7488   0.105E-03-0.773E-06
CGA:  15    -0.344275701462E+03   -0.12177E-04   -0.12188E-04  7488   0.172E-03-0.297E-06
CGA:  16    -0.344275710220E+03   -0.87577E-05   -0.87598E-05  7488   0.547E-04 0.912E-07
  12 F= -.34427571E+03 E0= -.34425973E+03  d E =-.272526E-02  mag=    20.0000
       N       E                     dE             d eps       ncg     rms          ort
SDA:   1    -0.342811128234E+03    0.14646E+01    0.00000E+00  7488   0.391E+01 0.000E+00
CGA:   2    -0.343394765027E+03   -0.58364E+00   -0.58437E+00  7488   0.127E+02-0.155E-01
CGA:   3    -0.343958684403E+03   -0.56392E+00   -0.55132E+00  7488   0.344E+01 0.884E-01
CGA:   4    -0.344066654410E+03   -0.10797E+00   -0.11289E+00  7488   0.134E+01-0.680E-01
CGA:   5    -0.344202646149E+03   -0.13599E+00   -0.13648E+00  7488   0.153E+01-0.106E-01
CGA:   6    -0.344249691157E+03   -0.47045E-01   -0.47123E-01  7488   0.279E+00-0.122E-02
CGA:   7    -0.344260569485E+03   -0.10878E-01   -0.10902E-01  7488   0.158E+00-0.270E-04
CGA:   8    -0.344273322018E+03   -0.12753E-01   -0.12732E-01  7488   0.150E+00 0.826E-03
CGA:   9    -0.344280168649E+03   -0.68466E-02   -0.68243E-02  7488   0.428E-01-0.113E-03
CGA:  10    -0.344281599134E+03   -0.14305E-02   -0.14361E-02  7488   0.252E-01-0.610E-04
CGA:  11    -0.344283981046E+03   -0.23819E-02   -0.23841E-02  7488   0.158E-01-0.492E-04
CGA:  12    -0.344284749532E+03   -0.76849E-03   -0.76897E-03  7488   0.104E-01 0.876E-05
CGA:  13    -0.344285249651E+03   -0.50012E-03   -0.50015E-03  7488   0.588E-02-0.474E-06
CGA:  14    -0.344285489994E+03   -0.24034E-03   -0.24075E-03  7488   0.225E-02-0.231E-05
CGA:  15    -0.344285734256E+03   -0.24426E-03   -0.24418E-03  7488   0.443E-02 0.137E-05
CGA:  16    -0.344285903911E+03   -0.16965E-03   -0.16996E-03  7488   0.108E-02-0.286E-05
CGA:  17    -0.344285951174E+03   -0.47263E-04   -0.47253E-04  7488   0.682E-03-0.556E-06
CGA:  18    -0.344286024385E+03   -0.73211E-04   -0.73100E-04  7488   0.127E-02 0.234E-05
CGA:  19    -0.344286098794E+03   -0.74409E-04   -0.74423E-04  7488   0.652E-03 0.312E-05
CGA:  20    -0.344286119615E+03   -0.20821E-04   -0.20886E-04  7488   0.242E-03-0.260E-06
CGA:  21    -0.344286150408E+03   -0.30793E-04   -0.30725E-04  7488   0.407E-03 0.856E-06
CGA:  22    -0.344286169180E+03   -0.18772E-04   -0.18797E-04  7488   0.236E-03 0.961E-06
CGA:  23    -0.344286181755E+03   -0.12575E-04   -0.12589E-04  7488   0.171E-03 0.119E-05
CGA:  24    -0.344286190708E+03   -0.89530E-05   -0.89632E-05  7488   0.609E-04 0.722E-06
  13 F= -.34428619E+03 E0= -.34427052E+03  d E =-.104805E-01  mag=    20.0000
       N       E                     dE             d eps       ncg     rms          ort
SDA:   1    -0.342557125718E+03    0.17291E+01    0.00000E+00  7488   0.487E+01 0.000E+00
CGA:   2    -0.343103980365E+03   -0.54685E+00   -0.56582E+00  7488   0.192E+02-0.379E+00
CGA:   3    -0.343810957497E+03   -0.70698E+00   -0.71846E+00  7488   0.422E+01 0.525E-02
CGA:   4    -0.343967460750E+03   -0.15650E+00   -0.15479E+00  7488   0.243E+01 0.196E-01
CGA:   5    -0.344119634853E+03   -0.15217E+00   -0.15215E+00  7488   0.316E+01-0.275E-01
CGA:   6    -0.344223798960E+03   -0.10416E+00   -0.10440E+00  7488   0.666E+00-0.324E-02
CGA:   7    -0.344251028333E+03   -0.27229E-01   -0.27344E-01  7488   0.329E+00 0.154E-03
CGA:   8    -0.344265611508E+03   -0.14583E-01   -0.14566E-01  7488   0.303E+00-0.104E-03
CGA:   9    -0.344278425828E+03   -0.12814E-01   -0.12830E-01  7488   0.114E+00 0.111E-03
CGA:  10    -0.344285030107E+03   -0.66043E-02   -0.66042E-02  7488   0.838E-01-0.638E-04
CGA:  11    -0.344288285378E+03   -0.32553E-02   -0.32492E-02  7488   0.526E-01 0.172E-04
CGA:  12    -0.344290191751E+03   -0.19064E-02   -0.19062E-02  7488   0.167E-01 0.898E-05
CGA:  13    -0.344292147442E+03   -0.19557E-02   -0.19519E-02  7488   0.317E-01 0.587E-04
CGA:  14    -0.344292963904E+03   -0.81646E-03   -0.81621E-03  7488   0.482E-02 0.543E-05
CGA:  15    -0.344293192125E+03   -0.22822E-03   -0.22822E-03  7488   0.363E-02 0.195E-06
CGA:  16    -0.344293564216E+03   -0.37209E-03   -0.37214E-03  7488   0.595E-02-0.178E-05
CGA:  17    -0.344293741430E+03   -0.17721E-03   -0.17745E-03  7488   0.160E-02-0.482E-05
CGA:  18    -0.344293828720E+03   -0.87290E-04   -0.87300E-04  7488   0.114E-02 0.193E-05
CGA:  19    -0.344293893319E+03   -0.64599E-04   -0.64603E-04  7488   0.104E-02 0.182E-05
CGA:  20    -0.344293944670E+03   -0.51351E-04   -0.51366E-04  7488   0.865E-03 0.105E-05
CGA:  21    -0.344294003680E+03   -0.59010E-04   -0.58986E-04  7488   0.927E-03 0.182E-05
CGA:  22    -0.344294044687E+03   -0.41006E-04   -0.41037E-04  7488   0.315E-03 0.186E-05
CGA:  23    -0.344294055268E+03   -0.10582E-04   -0.10591E-04  7488   0.195E-03 0.176E-06
CGA:  24    -0.344294085532E+03   -0.30264E-04   -0.30257E-04  7488   0.341E-03-0.199E-06
CGA:  25    -0.344294096930E+03   -0.11398E-04   -0.11421E-04  7488   0.134E-03 0.674E-06
CGA:  26    -0.344294101984E+03   -0.50531E-05   -0.50648E-05  7488   0.655E-04 0.395E-06
  14 F= -.34429410E+03 E0= -.34427849E+03  d E =-.791128E-02  mag=    20.0000
       N       E                     dE             d eps       ncg     rms          ort
SDA:   1    -0.343886826927E+03    0.40727E+00    0.00000E+00  7488   0.135E+01 0.000E+00
CGA:   2    -0.343985551971E+03   -0.98725E-01   -0.98121E-01  7488   0.264E+01 0.323E-01
CGA:   3    -0.344148975376E+03   -0.16342E+00   -0.16340E+00  7488   0.167E+01-0.179E-01
CGA:   4    -0.344216950386E+03   -0.67975E-01   -0.67425E-01  7488   0.479E+00 0.151E-02
CGA:   5    -0.344251676466E+03   -0.34726E-01   -0.34721E-01  7488   0.518E+00 0.318E-03
CGA:   6    -0.344275637628E+03   -0.23961E-01   -0.23965E-01  7488   0.216E+00 0.877E-04
CGA:   7    -0.344283324886E+03   -0.76873E-02   -0.76667E-02  7488   0.706E-01 0.221E-03
CGA:   8    -0.344288255615E+03   -0.49307E-02   -0.49344E-02  7488   0.460E-01-0.213E-03
CGA:   9    -0.344290140701E+03   -0.18851E-02   -0.18862E-02  7488   0.230E-01 0.645E-05
CGA:  10    -0.344291589516E+03   -0.14488E-02   -0.14485E-02  7488   0.237E-01 0.447E-04
CGA:  11    -0.344292466933E+03   -0.87742E-03   -0.87677E-03  7488   0.359E-02 0.516E-05
CGA:  12    -0.344292876426E+03   -0.40949E-03   -0.40965E-03  7488   0.678E-02-0.206E-05
CGA:  13    -0.344293168871E+03   -0.29244E-03   -0.29241E-03  7488   0.298E-02 0.548E-06
CGA:  14    -0.344293273435E+03   -0.10456E-03   -0.10471E-03  7488   0.635E-03 0.418E-06
CGA:  15    -0.344293339277E+03   -0.65842E-04   -0.65766E-04  7488   0.132E-02 0.161E-05
CGA:  16    -0.344293399949E+03   -0.60672E-04   -0.60689E-04  7488   0.586E-03 0.504E-06
CGA:  17    -0.344293425523E+03   -0.25575E-04   -0.25581E-04  7488   0.272E-03 0.349E-06
CGA:  18    -0.344293447673E+03   -0.22149E-04   -0.22140E-04  7488   0.181E-03 0.312E-06
CGA:  19    -0.344293456546E+03   -0.88727E-05   -0.88741E-05  7488   0.204E-03 0.947E-08
CGA:  20    -0.344293475576E+03   -0.19030E-04   -0.19027E-04  7488   0.208E-03 0.296E-07
CGA:  21    -0.344293483002E+03   -0.74256E-05   -0.74321E-05  7488   0.486E-04 0.140E-06
  15 F= -.34429348E+03 E0= -.34427785E+03  d E =0.618982E-03  mag=    20.0000
       N       E                     dE             d eps       ncg     rms          ort
SDA:   1    -0.344261723839E+03    0.31752E-01    0.00000E+00  7488   0.493E+00 0.000E+00
CGA:   2    -0.344271329444E+03   -0.96056E-02   -0.98880E-02  7488   0.753E-01-0.100E-01
CGA:   3    -0.344278751933E+03   -0.74225E-02   -0.73906E-02  7488   0.130E+00 0.718E-03
CGA:   4    -0.344287493086E+03   -0.87412E-02   -0.87429E-02  7488   0.818E-01-0.167E-03
CGA:   5    -0.344289864979E+03   -0.23719E-02   -0.23680E-02  7488   0.182E-01 0.789E-04
CGA:   6    -0.344291384428E+03   -0.15194E-02   -0.15191E-02  7488   0.228E-01 0.133E-04
CGA:   7    -0.344292675997E+03   -0.12916E-02   -0.12915E-02  7488   0.411E-02 0.360E-05
CGA:   8    -0.344292807536E+03   -0.13154E-03   -0.13156E-03  7488   0.230E-02-0.942E-06
CGA:   9    -0.344293012860E+03   -0.20532E-03   -0.20548E-03  7488   0.221E-02-0.502E-05
CGA:  10    -0.344293096528E+03   -0.83668E-04   -0.83647E-04  7488   0.545E-03-0.183E-05
CGA:  11    -0.344293124000E+03   -0.27472E-04   -0.27467E-04  7488   0.422E-03-0.341E-06
CGA:  12    -0.344293150538E+03   -0.26538E-04   -0.26544E-04  7488   0.398E-03-0.152E-05
CGA:  13    -0.344293170441E+03   -0.19903E-04   -0.19889E-04  7488   0.143E-03-0.157E-05
CGA:  14    -0.344293179835E+03   -0.93936E-05   -0.93959E-05  7488   0.109E-03-0.367E-06
  16 F= -.34429318E+03 E0= -.34427756E+03  d E =0.303167E-03  mag=    20.0000
       N       E                     dE             d eps       ncg     rms          ort
SDA:   1    -0.344231953956E+03    0.61216E-01    0.00000E+00  7488   0.244E+00 0.000E+00
CGA:   2    -0.344243001859E+03   -0.11048E-01   -0.11037E-01  7488   0.289E+00-0.147E-03
CGA:   3    -0.344269832776E+03   -0.26831E-01   -0.26849E-01  7488   0.331E+00-0.421E-03
CGA:   4    -0.344281450503E+03   -0.11618E-01   -0.11618E-01  7488   0.562E-01 0.204E-04
CGA:   5    -0.344285076136E+03   -0.36256E-02   -0.36248E-02  7488   0.767E-01 0.784E-04
CGA:   6    -0.344289250233E+03   -0.41741E-02   -0.41739E-02  7488   0.324E-01-0.164E-04
CGA:   7    -0.344290397179E+03   -0.11469E-02   -0.11481E-02  7488   0.777E-02-0.787E-05
CGA:   8    -0.344290946294E+03   -0.54912E-03   -0.54903E-03  7488   0.537E-02 0.380E-05
CGA:   9    -0.344291286332E+03   -0.34004E-03   -0.34009E-03  7488   0.263E-02-0.589E-05
CGA:  10    -0.344291426486E+03   -0.14015E-03   -0.14014E-03  7488   0.256E-02-0.393E-05
CGA:  11    -0.344291526078E+03   -0.99592E-04   -0.99554E-04  7488   0.589E-03-0.451E-05
CGA:  12    -0.344291561455E+03   -0.35377E-04   -0.35381E-04  7488   0.572E-03-0.118E-05
CGA:  13    -0.344291611057E+03   -0.49602E-04   -0.49698E-04  7488   0.475E-03-0.316E-05
CGA:  14    -0.344291623784E+03   -0.12727E-04   -0.12707E-04  7488   0.748E-04-0.888E-06
CGA:  15    -0.344291634121E+03   -0.10337E-04   -0.10276E-04  7488   0.150E-03 0.680E-06
CGA:  16    -0.344291642840E+03   -0.87193E-05   -0.87196E-05  7488   0.688E-04 0.194E-07
  17 F= -.34429164E+03 E0= -.34427604E+03  d E =0.153699E-02  mag=    20.0000
       N       E                     dE             d eps       ncg     rms          ort
SDA:   1    -0.343736559435E+03    0.55507E+00    0.00000E+00  7488   0.216E+01 0.000E+00
CGA:   2    -0.343829151060E+03   -0.92592E-01   -0.93746E-01  7488   0.285E+01 0.126E-01
CGA:   3    -0.344136410930E+03   -0.30726E+00   -0.30773E+00  7488   0.168E+01-0.126E-01
CGA:   4    -0.344196061456E+03   -0.59651E-01   -0.59923E-01  7488   0.518E+00-0.258E-02
CGA:   5    -0.344231765009E+03   -0.35704E-01   -0.35718E-01  7488   0.735E+00-0.933E-03
CGA:   6    -0.344267992913E+03   -0.36228E-01   -0.36213E-01  7488   0.190E+00-0.253E-03
CGA:   7    -0.344275172921E+03   -0.71800E-02   -0.71321E-02  7488   0.678E-01 0.237E-03
CGA:   8    -0.344279410513E+03   -0.42376E-02   -0.42371E-02  7488   0.609E-01 0.679E-04
CGA:   9    -0.344281974848E+03   -0.25643E-02   -0.25646E-02  7488   0.321E-01-0.381E-05
CGA:  10    -0.344283536105E+03   -0.15613E-02   -0.15625E-02  7488   0.166E-01 0.306E-04
CGA:  11    -0.344284621640E+03   -0.10855E-02   -0.10855E-02  7488   0.492E-02-0.584E-05
CGA:  12    -0.344284872665E+03   -0.25102E-03   -0.25110E-03  7488   0.645E-02 0.147E-05
CGA:  13    -0.344285368723E+03   -0.49606E-03   -0.49624E-03  7488   0.248E-02-0.927E-05
CGA:  14    -0.344285452089E+03   -0.83366E-04   -0.83400E-04  7488   0.878E-03-0.236E-05
CGA:  15    -0.344285517376E+03   -0.65286E-04   -0.65276E-04  7488   0.163E-02-0.495E-06
CGA:  16    -0.344285627645E+03   -0.11027E-03   -0.11023E-03  7488   0.599E-03 0.240E-05
CGA:  17    -0.344285657015E+03   -0.29370E-04   -0.29383E-04  7488   0.353E-03 0.645E-06
CGA:  18    -0.344285682289E+03   -0.25273E-04   -0.25254E-04  7488   0.469E-03 0.746E-06
CGA:  19    -0.344285709058E+03   -0.26770E-04   -0.26772E-04  7488   0.345E-03 0.345E-06
CGA:  20    -0.344285729583E+03   -0.20524E-04   -0.20523E-04  7488   0.301E-03 0.662E-06
CGA:  21    -0.344285746579E+03   -0.16997E-04   -0.17001E-04  7488   0.126E-03 0.129E-05
CGA:  22    -0.344285751501E+03   -0.49218E-05   -0.49317E-05  7488   0.944E-04 0.645E-07
CGA:  23    -0.344285765986E+03   -0.14485E-04   -0.14390E-04  7488   0.942E-04 0.698E-06
CGA:  24    -0.344285769332E+03   -0.33461E-05   -0.33603E-05  7488   0.283E-04 0.222E-06
  18 F= -.34428577E+03 E0= -.34427021E+03  d E =0.587351E-02  mag=    20.0000
       N       E                     dE             d eps       ncg     rms          ort
SDA:   1    -0.343860599999E+03    0.42517E+00    0.00000E+00  7488   0.123E+01 0.000E+00
CGA:   2    -0.344030331470E+03   -0.16973E+00   -0.17019E+00  7488   0.300E+01-0.607E-02
CGA:   3    -0.344166566909E+03   -0.13624E+00   -0.13661E+00  7488   0.119E+01 0.223E-02
CGA:   4    -0.344203337901E+03   -0.36771E-01   -0.36657E-01  7488   0.429E+00 0.287E-02
CGA:   5    -0.344253647393E+03   -0.50309E-01   -0.50321E-01  7488   0.433E+00-0.195E-03
CGA:   6    -0.344268121135E+03   -0.14474E-01   -0.14492E-01  7488   0.937E-01-0.273E-03
CGA:   7    -0.344272034993E+03   -0.39139E-02   -0.38890E-02  7488   0.566E-01 0.530E-04
CGA:   8    -0.344276518764E+03   -0.44838E-02   -0.44841E-02  7488   0.518E-01-0.172E-04
CGA:   9    -0.344278619508E+03   -0.21007E-02   -0.21036E-02  7488   0.759E-02-0.108E-04
CGA:  10    -0.344279186429E+03   -0.56692E-03   -0.56703E-03  7488   0.157E-01-0.665E-05
CGA:  11    -0.344279999418E+03   -0.81299E-03   -0.81301E-03  7488   0.461E-02-0.676E-05
CGA:  12    -0.344280189713E+03   -0.19029E-03   -0.19021E-03  7488   0.165E-02 0.984E-07
CGA:  13    -0.344280349643E+03   -0.15993E-03   -0.15981E-03  7488   0.169E-02 0.295E-05
CGA:  14    -0.344280425192E+03   -0.75549E-04   -0.75553E-04  7488   0.132E-02 0.502E-06
CGA:  15    -0.344280506241E+03   -0.81049E-04   -0.81049E-04  7488   0.707E-03 0.695E-06
CGA:  16    -0.344280543886E+03   -0.37646E-04   -0.37660E-04  7488   0.346E-03 0.135E-05
CGA:  17    -0.344280560107E+03   -0.16220E-04   -0.16232E-04  7488   0.380E-03 0.605E-06
CGA:  18    -0.344280604714E+03   -0.44608E-04   -0.44506E-04  7488   0.436E-03 0.173E-05
CGA:  19    -0.344280621067E+03   -0.16353E-04   -0.16364E-04  7488   0.921E-04 0.132E-06
CGA:  20    -0.344280631185E+03   -0.10118E-04   -0.10076E-04  7488   0.232E-03 0.854E-06
CGA:  21    -0.344280645025E+03   -0.13839E-04   -0.13847E-04  7488   0.145E-03 0.131E-05
CGA:  22    -0.344280650210E+03   -0.51857E-05   -0.52002E-05  7488   0.443E-04 0.450E-06
  19 F= -.34428065E+03 E0= -.34426508E+03  d E =0.511912E-02  mag=    20.0000
       N       E                     dE             d eps       ncg     rms          ort
SDA:   1    -0.344041238455E+03    0.23941E+00    0.00000E+00  7488   0.817E+00 0.000E+00
CGA:   2    -0.344099222687E+03   -0.57984E-01   -0.57945E-01  7488   0.169E+01 0.345E-02
CGA:   3    -0.344199777176E+03   -0.10055E+00   -0.10054E+00  7488   0.747E+00-0.123E-02
CGA:   4    -0.344230243878E+03   -0.30467E-01   -0.30378E-01  7488   0.323E+00 0.353E-03
CGA:   5    -0.344252995446E+03   -0.22752E-01   -0.22769E-01  7488   0.389E+00-0.125E-02
CGA:   6    -0.344268287281E+03   -0.15292E-01   -0.15303E-01  7488   0.107E+00-0.218E-04
CGA:   7    -0.344273710801E+03   -0.54235E-02   -0.54201E-02  7488   0.544E-01-0.739E-04
CGA:   8    -0.344276914002E+03   -0.32032E-02   -0.32036E-02  7488   0.230E-01 0.808E-04
CGA:   9    -0.344278236170E+03   -0.13222E-02   -0.13228E-02  7488   0.154E-01 0.852E-04
CGA:  10    -0.344279103575E+03   -0.86740E-03   -0.86755E-03  7488   0.127E-01 0.234E-04
CGA:  11    -0.344279503090E+03   -0.39952E-03   -0.39921E-03  7488   0.223E-02 0.180E-04
CGA:  12    -0.344279766636E+03   -0.26355E-03   -0.26266E-03  7488   0.443E-02 0.153E-04
CGA:  13    -0.344279962062E+03   -0.19543E-03   -0.19560E-03  7488   0.129E-02 0.101E-04
CGA:  14    -0.344280004713E+03   -0.42651E-04   -0.42718E-04  7488   0.482E-03 0.164E-05
CGA:  15    -0.344280066341E+03   -0.61628E-04   -0.61597E-04  7488   0.453E-03 0.349E-06
CGA:  16    -0.344280089618E+03   -0.23277E-04   -0.23288E-04  7488   0.348E-03 0.749E-06
CGA:  17    -0.344280105058E+03   -0.15440E-04   -0.15450E-04  7488   0.199E-03 0.507E-06
CGA:  18    -0.344280114764E+03   -0.97064E-05   -0.97016E-05  7488   0.937E-04-0.561E-06
  20 F= -.34428011E+03 E0= -.34426433E+03  d E =0.535446E-03  mag=    20.0000
       N       E                     dE             d eps       ncg     rms          ort
SDA:   1    -0.344235785441E+03    0.44320E-01    0.00000E+00  7488   0.377E+00 0.000E+00
CGA:   2    -0.344245698654E+03   -0.99132E-02   -0.99163E-02  7488   0.140E+00-0.637E-04
CGA:   3    -0.344259133210E+03   -0.13435E-01   -0.13432E-01  7488   0.241E+00 0.758E-04
CGA:   4    -0.344270514816E+03   -0.11382E-01   -0.11371E-01  7488   0.767E-01-0.140E-03
CGA:   5    -0.344273891765E+03   -0.33769E-02   -0.33785E-02  7488   0.546E-01 0.390E-04
CGA:   6    -0.344277440800E+03   -0.35490E-02   -0.35487E-02  7488   0.506E-01 0.606E-04
CGA:   7    -0.344279585051E+03   -0.21443E-02   -0.21430E-02  7488   0.671E-02 0.124E-04
CGA:   8    -0.344280002170E+03   -0.41712E-03   -0.41713E-03  7488   0.588E-02-0.106E-05
CGA:   9    -0.344280411522E+03   -0.40935E-03   -0.40931E-03  7488   0.371E-02 0.278E-05
CGA:  10    -0.344280517003E+03   -0.10548E-03   -0.10544E-03  7488   0.111E-02 0.121E-06
CGA:  11    -0.344280607204E+03   -0.90202E-04   -0.90262E-04  7488   0.752E-03-0.223E-05
CGA:  12    -0.344280641287E+03   -0.34082E-04   -0.34086E-04  7488   0.582E-03 0.155E-06
CGA:  13    -0.344280680359E+03   -0.39072E-04   -0.39064E-04  7488   0.502E-03 0.878E-06
CGA:  14    -0.344280702160E+03   -0.21801E-04   -0.21814E-04  7488   0.911E-04 0.834E-06
CGA:  15    -0.344280708831E+03   -0.66715E-05   -0.66753E-05  7488   0.123E-03-0.280E-06
  21 F= -.34428071E+03 E0= -.34426498E+03  d E =-.594067E-03  mag=    20.0000
       N       E                     dE             d eps       ncg     rms          ort
SDA:   1    -0.344241908391E+03    0.38794E-01    0.00000E+00  7488   0.507E+00 0.000E+00
CGA:   2    -0.344251918885E+03   -0.10010E-01   -0.98457E-02  7488   0.863E-01 0.678E-02
CGA:   3    -0.344262074421E+03   -0.10156E-01   -0.10179E-01  7488   0.161E+00-0.394E-03
CGA:   4    -0.344273323593E+03   -0.11249E-01   -0.11248E-01  7488   0.457E-01 0.444E-04
CGA:   5    -0.344274964748E+03   -0.16412E-02   -0.16469E-02  7488   0.247E-01-0.281E-04
CGA:   6    -0.344276482155E+03   -0.15174E-02   -0.15172E-02  7488   0.300E-01 0.636E-04
CGA:   7    -0.344277926264E+03   -0.14441E-02   -0.14434E-02  7488   0.443E-02-0.919E-05
CGA:   8    -0.344278114147E+03   -0.18788E-03   -0.18778E-03  7488   0.278E-02-0.119E-05
CGA:   9    -0.344278306900E+03   -0.19275E-03   -0.19282E-03  7488   0.213E-02-0.461E-05
CGA:  10    -0.344278388883E+03   -0.81983E-04   -0.81969E-04  7488   0.980E-03-0.133E-05
CGA:  11    -0.344278471020E+03   -0.82137E-04   -0.82119E-04  7488   0.291E-03 0.483E-06
CGA:  12    -0.344278488044E+03   -0.17024E-04   -0.17024E-04  7488   0.239E-03-0.180E-06
CGA:  13    -0.344278515784E+03   -0.27741E-04   -0.27673E-04  7488   0.126E-03 0.120E-05
CGA:  14    -0.344278519186E+03   -0.34016E-05   -0.34090E-05  7488   0.408E-04 0.186E-06
  22 F= -.34427852E+03 E0= -.34426279E+03  d E =0.218965E-02  mag=    20.0000
       N       E                     dE             d eps       ncg     rms          ort
SDA:   1    -0.340765066765E+03    0.35134E+01    0.00000E+00  7488   0.148E+02 0.000E+00
CGA:   2    -0.341320495026E+03   -0.55543E+00   -0.60026E+00  7488   0.174E+02 0.537E-01
CGA:   3    -0.343115931283E+03   -0.17954E+01   -0.18447E+01  7488   0.199E+02-0.157E+01
CGA:   4    -0.343645683047E+03   -0.52975E+00   -0.50861E+00  7488   0.282E+01 0.483E+00
CGA:   5    -0.343922472403E+03   -0.27679E+00   -0.27607E+00  7488   0.530E+01 0.164E-01
CGA:   6    -0.344118815027E+03   -0.19634E+00   -0.19986E+00  7488   0.198E+01-0.234E-01
CGA:   7    -0.344171772496E+03   -0.52957E-01   -0.50158E-01  7488   0.436E+00 0.778E-01
CGA:   8    -0.344192028477E+03   -0.20256E-01   -0.20315E-01  7488   0.451E+00 0.576E-03
CGA:   9    -0.344222118321E+03   -0.30090E-01   -0.30099E-01  7488   0.320E+00-0.109E-02
CGA:  10    -0.344233889523E+03   -0.11771E-01   -0.12012E-01  7488   0.669E-01-0.114E-02
CGA:  11    -0.344237940743E+03   -0.40512E-02   -0.40513E-02  7488   0.766E-01-0.595E-04
CGA:  12    -0.344243210664E+03   -0.52699E-02   -0.52396E-02  7488   0.617E-01 0.233E-02
CGA:  13    -0.344244976319E+03   -0.17657E-02   -0.17604E-02  7488   0.192E-01 0.108E-03
CGA:  14    -0.344246320784E+03   -0.13445E-02   -0.13390E-02  7488   0.110E-01 0.335E-03
CGA:  15    -0.344246845716E+03   -0.52493E-03   -0.52466E-03  7488   0.755E-02-0.357E-05
CGA:  16    -0.344247463798E+03   -0.61808E-03   -0.61407E-03  7488   0.129E-01 0.138E-03
CGA:  17    -0.344248002324E+03   -0.53853E-03   -0.53798E-03  7488   0.250E-02 0.736E-06
CGA:  18    -0.344248106057E+03   -0.10373E-03   -0.10422E-03  7488   0.211E-02 0.166E-05
CGA:  19    -0.344248351629E+03   -0.24557E-03   -0.24579E-03  7488   0.451E-02-0.631E-05
CGA:  20    -0.344248561027E+03   -0.20940E-03   -0.21006E-03  7488   0.158E-02 0.893E-05
CGA:  21    -0.344248627116E+03   -0.66089E-04   -0.66064E-04  7488   0.660E-03-0.161E-05
CGA:  22    -0.344248693121E+03   -0.66006E-04   -0.65793E-04  7488   0.168E-02 0.444E-05
CGA:  23    -0.344248767192E+03   -0.74071E-04   -0.74092E-04  7488   0.511E-03 0.617E-06
CGA:  24    -0.344248810807E+03   -0.43615E-04   -0.43525E-04  7488   0.473E-03 0.280E-05
CGA:  25    -0.344248826524E+03   -0.15716E-04   -0.15759E-04  7488   0.158E-03 0.103E-05
CGA:  26    -0.344248840575E+03   -0.14051E-04   -0.13972E-04  7488   0.314E-03 0.253E-05
CGA:  27    -0.344248863322E+03   -0.22747E-04   -0.22705E-04  7488   0.163E-03 0.414E-05
CGA:  28    -0.344248868469E+03   -0.51470E-05   -0.51697E-05  7488   0.598E-04-0.276E-07
  23 F= -.34424887E+03 E0= -.34423298E+03  d E =0.296507E-01  mag=    20.0000
       N       E                     dE             d eps       ncg     rms          ort
SDA:   1    -0.343222058438E+03    0.10268E+01    0.00000E+00  7488   0.340E+01 0.000E+00
CGA:   2    -0.343463285958E+03   -0.24123E+00   -0.24227E+00  7488   0.794E+01-0.751E-01
CGA:   3    -0.343916743068E+03   -0.45346E+00   -0.45381E+00  7488   0.414E+01 0.346E-01
CGA:   4    -0.344063408975E+03   -0.14667E+00   -0.15253E+00  7488   0.120E+01-0.388E-01
CGA:   5    -0.344147478951E+03   -0.84070E-01   -0.84155E-01  7488   0.159E+01-0.576E-02
CGA:   6    -0.344216703537E+03   -0.69225E-01   -0.69140E-01  7488   0.698E+00 0.395E-03
CGA:   7    -0.344238159160E+03   -0.21456E-01   -0.21088E-01  7488   0.139E+00 0.669E-02
CGA:   8    -0.344246852099E+03   -0.86929E-02   -0.86935E-02  7488   0.181E+00-0.118E-03
CGA:   9    -0.344256192398E+03   -0.93403E-02   -0.93429E-02  7488   0.856E-01 0.143E-03
CGA:  10    -0.344259271186E+03   -0.30788E-02   -0.30827E-02  7488   0.210E-01-0.271E-05
CGA:  11    -0.344261073270E+03   -0.18021E-02   -0.17961E-02  7488   0.328E-01 0.180E-03
CGA:  12    -0.344262144649E+03   -0.10714E-02   -0.10716E-02  7488   0.117E-01 0.557E-05
CGA:  13    -0.344263116056E+03   -0.97141E-03   -0.97155E-03  7488   0.887E-02-0.349E-05
CGA:  14    -0.344263473062E+03   -0.35701E-03   -0.35736E-03  7488   0.199E-02-0.199E-05
CGA:  15    -0.344263621791E+03   -0.14873E-03   -0.14867E-03  7488   0.387E-02 0.235E-05
CGA:  16    -0.344263860681E+03   -0.23889E-03   -0.23887E-03  7488   0.235E-02 0.340E-05
CGA:  17    -0.344263947562E+03   -0.86881E-04   -0.86946E-04  7488   0.625E-03-0.102E-05
CGA:  18    -0.344263978956E+03   -0.31394E-04   -0.31398E-04  7488   0.724E-03-0.380E-06
CGA:  19    -0.344264049910E+03   -0.70954E-04   -0.70891E-04  7488   0.108E-02 0.901E-06
CGA:  20    -0.344264101389E+03   -0.51479E-04   -0.51498E-04  7488   0.224E-03 0.656E-06
CGA:  21    -0.344264122898E+03   -0.21509E-04   -0.21488E-04  7488   0.357E-03 0.163E-06
CGA:  22    -0.344264141518E+03   -0.18621E-04   -0.18630E-04  7488   0.273E-03 0.638E-06
CGA:  23    -0.344264155063E+03   -0.13545E-04   -0.13553E-04  7488   0.212E-03 0.305E-06
CGA:  24    -0.344264168530E+03   -0.13467E-04   -0.13466E-04  7488   0.958E-04-0.589E-08
CGA:  25    -0.344264172093E+03   -0.35629E-05   -0.35597E-05  7488   0.606E-04-0.335E-06
  24 F= -.34426417E+03 E0= -.34424836E+03  d E =-.153036E-01  mag=    20.0000
       N       E                     dE             d eps       ncg     rms          ort
SDA:   1    -0.343202052568E+03    0.10621E+01    0.00000E+00  7488   0.287E+01 0.000E+00
CGA:   2    -0.343731842039E+03   -0.52979E+00   -0.52683E+00  7488   0.781E+01 0.261E-01
CGA:   3    -0.344003925307E+03   -0.27208E+00   -0.27369E+00  7488   0.251E+01 0.212E-02
CGA:   4    -0.344096969633E+03   -0.93044E-01   -0.91766E-01  7488   0.122E+01 0.139E-01
CGA:   5    -0.344215968750E+03   -0.11900E+00   -0.11852E+00  7488   0.844E+00 0.123E-01
CGA:   6    -0.344242962165E+03   -0.26993E-01   -0.27091E-01  7488   0.287E+00-0.138E-02
CGA:   7    -0.344257611186E+03   -0.14649E-01   -0.14642E-01  7488   0.153E+00-0.124E-03
CGA:   8    -0.344267282380E+03   -0.96712E-02   -0.96711E-02  7488   0.789E-01-0.131E-03
CGA:   9    -0.344271154830E+03   -0.38724E-02   -0.38767E-02  7488   0.600E-01 0.801E-04
CGA:  10    -0.344274135899E+03   -0.29811E-02   -0.29854E-02  7488   0.346E-01 0.886E-04
CGA:  11    -0.344275292195E+03   -0.11563E-02   -0.11571E-02  7488   0.101E-01-0.858E-05
CGA:  12    -0.344276643280E+03   -0.13511E-02   -0.13515E-02  7488   0.125E-01-0.475E-05
CGA:  13    -0.344277142157E+03   -0.49888E-03   -0.49870E-03  7488   0.251E-02-0.313E-05
CGA:  14    -0.344277259385E+03   -0.11723E-03   -0.11722E-03  7488   0.273E-02-0.941E-06
CGA:  15    -0.344277535347E+03   -0.27596E-03   -0.27603E-03  7488   0.163E-02-0.164E-05
CGA:  16    -0.344277622589E+03   -0.87242E-04   -0.87263E-04  7488   0.910E-03 0.129E-05
CGA:  17    -0.344277666356E+03   -0.43768E-04   -0.43782E-04  7488   0.874E-03 0.368E-06
CGA:  18    -0.344277714595E+03   -0.48239E-04   -0.48242E-04  7488   0.503E-03 0.455E-06
CGA:  19    -0.344277758657E+03   -0.44062E-04   -0.44019E-04  7488   0.739E-03 0.171E-05
CGA:  20    -0.344277800485E+03   -0.41828E-04   -0.41847E-04  7488   0.281E-03 0.228E-05
CGA:  21    -0.344277811157E+03   -0.10672E-04   -0.10684E-04  7488   0.163E-03 0.490E-06
CGA:  22    -0.344277831208E+03   -0.20051E-04   -0.19991E-04  7488   0.295E-03 0.970E-06
CGA:  23    -0.344277845931E+03   -0.14723E-04   -0.14735E-04  7488   0.587E-04 0.745E-06
CGA:  24    -0.344277851255E+03   -0.53236E-05   -0.53152E-05  7488   0.812E-04 0.298E-06
  25 F= -.34427785E+03 E0= -.34426212E+03  d E =-.136792E-01  mag=    20.0000
       N       E                     dE             d eps       ncg     rms          ort
SDA:   1    -0.344118919629E+03    0.15893E+00    0.00000E+00  7488   0.907E+00 0.000E+00
CGA:   2    -0.344145282393E+03   -0.26363E-01   -0.26675E-01  7488   0.575E+00-0.513E-02
CGA:   3    -0.344222904912E+03   -0.77623E-01   -0.77552E-01  7488   0.562E+00 0.958E-03
CGA:   4    -0.344242728506E+03   -0.19824E-01   -0.19784E-01  7488   0.239E+00 0.584E-03
CGA:   5    -0.344254431365E+03   -0.11703E-01   -0.11666E-01  7488   0.194E+00-0.272E-03
CGA:   6    -0.344268559975E+03   -0.14129E-01   -0.14122E-01  7488   0.621E-01 0.524E-03
CGA:   7    -0.344271198162E+03   -0.26382E-02   -0.26399E-02  7488   0.200E-01 0.107E-04
CGA:   8    -0.344272964578E+03   -0.17664E-02   -0.17655E-02  7488   0.221E-01 0.272E-04
CGA:   9    -0.344273794126E+03   -0.82955E-03   -0.82932E-03  7488   0.764E-02-0.169E-05
CGA:  10    -0.344274142765E+03   -0.34864E-03   -0.34860E-03  7488   0.542E-02-0.103E-05
CGA:  11    -0.344274428140E+03   -0.28537E-03   -0.28526E-03  7488   0.192E-02-0.457E-05
CGA:  12    -0.344274547740E+03   -0.11960E-03   -0.11960E-03  7488   0.274E-02-0.140E-05
CGA:  13    -0.344274701307E+03   -0.15357E-03   -0.15356E-03  7488   0.100E-02-0.192E-05
CGA:  14    -0.344274742678E+03   -0.41371E-04   -0.41378E-04  7488   0.261E-03 0.433E-07
CGA:  15    -0.344274774176E+03   -0.31498E-04   -0.31449E-04  7488   0.495E-03 0.423E-06
CGA:  16    -0.344274799464E+03   -0.25288E-04   -0.25293E-04  7488   0.283E-03-0.789E-07
CGA:  17    -0.344274808122E+03   -0.86580E-05   -0.86608E-05  7488   0.663E-04 0.183E-07
  26 F= -.34427481E+03 E0= -.34425908E+03  d E =0.304313E-02  mag=    20.0000
       N       E                     dE             d eps       ncg     rms          ort
SDA:   1    -0.344082568012E+03    0.19223E+00    0.00000E+00  7488   0.132E+01 0.000E+00
CGA:   2    -0.344115543334E+03   -0.32975E-01   -0.33158E-01  7488   0.569E+00-0.483E-02
CGA:   3    -0.344198959068E+03   -0.83416E-01   -0.83442E-01  7488   0.111E+01-0.345E-03
CGA:   4    -0.344237792626E+03   -0.38834E-01   -0.38577E-01  7488   0.225E+00 0.352E-02
CGA:   5    -0.344248552727E+03   -0.10760E-01   -0.10735E-01  7488   0.206E+00-0.778E-04
CGA:   6    -0.344261163006E+03   -0.12610E-01   -0.12609E-01  7488   0.927E-01-0.151E-03
CGA:   7    -0.344265580294E+03   -0.44173E-02   -0.44224E-02  7488   0.355E-01 0.436E-04
CGA:   8    -0.344267862805E+03   -0.22825E-02   -0.22824E-02  7488   0.134E-01 0.978E-04
CGA:   9    -0.344268498263E+03   -0.63546E-03   -0.63580E-03  7488   0.111E-01 0.681E-05
CGA:  10    -0.344269041877E+03   -0.54361E-03   -0.54414E-03  7488   0.863E-02 0.105E-04
CGA:  11    -0.344269538474E+03   -0.49660E-03   -0.49653E-03  7488   0.155E-02-0.318E-05
CGA:  12    -0.344269631981E+03   -0.93506E-04   -0.93507E-04  7488   0.208E-02-0.266E-06
CGA:  13    -0.344269776487E+03   -0.14451E-03   -0.14449E-03  7488   0.154E-02 0.135E-05
CGA:  14    -0.344269829473E+03   -0.52986E-04   -0.53017E-04  7488   0.245E-03 0.680E-06
CGA:  15    -0.344269856318E+03   -0.26845E-04   -0.26823E-04  7488   0.560E-03 0.178E-06
CGA:  16    -0.344269879060E+03   -0.22741E-04   -0.22763E-04  7488   0.244E-03 0.982E-07
CGA:  17    -0.344269893475E+03   -0.14415E-04   -0.14419E-04  7488   0.182E-03 0.889E-06
CGA:  18    -0.344269903956E+03   -0.10481E-04   -0.10484E-04  7488   0.821E-04 0.256E-06
CGA:  19    -0.344269909834E+03   -0.58778E-05   -0.58793E-05  7488   0.985E-04-0.348E-06
  27 F= -.34426991E+03 E0= -.34425411E+03  d E =0.489829E-02  mag=    20.0000
       N       E                     dE             d eps       ncg     rms          ort
SDA:   1    -0.344217454123E+03    0.52450E-01    0.00000E+00  7488   0.750E+00 0.000E+00
CGA:   2    -0.344232695853E+03   -0.15242E-01   -0.15384E-01  7488   0.136E+00-0.475E-02
CGA:   3    -0.344245488099E+03   -0.12792E-01   -0.12860E-01  7488   0.256E+00-0.170E-02
CGA:   4    -0.344261681276E+03   -0.16193E-01   -0.16193E-01  7488   0.134E+00 0.110E-03
CGA:   5    -0.344265940070E+03   -0.42588E-02   -0.42824E-02  7488   0.349E-01-0.337E-03
CGA:   6    -0.344268096346E+03   -0.21563E-02   -0.21562E-02  7488   0.383E-01 0.472E-04
CGA:   7    -0.344270706795E+03   -0.26104E-02   -0.26110E-02  7488   0.838E-02-0.493E-04
CGA:   8    -0.344271073395E+03   -0.36660E-03   -0.36672E-03  7488   0.386E-02 0.257E-05
CGA:   9    -0.344271352736E+03   -0.27934E-03   -0.27927E-03  7488   0.400E-02 0.552E-05
CGA:  10    -0.344271489481E+03   -0.13675E-03   -0.13683E-03  7488   0.130E-02 0.134E-05
CGA:  11    -0.344271596642E+03   -0.10716E-03   -0.10716E-03  7488   0.984E-03 0.390E-06
CGA:  12    -0.344271625562E+03   -0.28920E-04   -0.28966E-04  7488   0.333E-03 0.278E-06
CGA:  13    -0.344271657190E+03   -0.31627E-04   -0.31557E-04  7488   0.432E-03 0.199E-05
CGA:  14    -0.344271679080E+03   -0.21890E-04   -0.21906E-04  7488   0.882E-04 0.130E-05
CGA:  15    -0.344271683457E+03   -0.43769E-05   -0.43745E-05  7488   0.701E-04-0.255E-06
  28 F= -.34427168E+03 E0= -.34425587E+03  d E =-.177362E-02  mag=    20.0000
       N       E                     dE             d eps       ncg     rms          ort
SDA:   1    -0.344181065022E+03    0.90614E-01    0.00000E+00  7488   0.568E+00 0.000E+00
CGA:   2    -0.344197168487E+03   -0.16103E-01   -0.16239E-01  7488   0.323E+00-0.222E-02
CGA:   3    -0.344236932927E+03   -0.39764E-01   -0.39766E-01  7488   0.563E+00-0.591E-04
CGA:   4    -0.344259990047E+03   -0.23057E-01   -0.22993E-01  7488   0.139E+00 0.186E-03
CGA:   5    -0.344265113318E+03   -0.51233E-02   -0.51319E-02  7488   0.674E-01-0.277E-04
CGA:   6    -0.344269953266E+03   -0.48399E-02   -0.48391E-02  7488   0.784E-01 0.528E-04
CGA:   7    -0.344273734038E+03   -0.37808E-02   -0.37789E-02  7488   0.943E-02-0.408E-04
CGA:   8    -0.344274394985E+03   -0.66095E-03   -0.66128E-03  7488   0.760E-02-0.216E-04
CGA:   9    -0.344274807012E+03   -0.41203E-03   -0.41206E-03  7488   0.381E-02 0.253E-05
CGA:  10    -0.344275012929E+03   -0.20592E-03   -0.20593E-03  7488   0.399E-02 0.194E-05
CGA:  11    -0.344275211663E+03   -0.19873E-03   -0.19878E-03  7488   0.669E-03 0.208E-05
CGA:  12    -0.344275247650E+03   -0.35987E-04   -0.35989E-04  7488   0.863E-03 0.170E-07
CGA:  13    -0.344275302910E+03   -0.55260E-04   -0.55264E-04  7488   0.655E-03-0.905E-06
CGA:  14    -0.344275330870E+03   -0.27960E-04   -0.27930E-04  7488   0.143E-03-0.168E-05
CGA:  15    -0.344275339317E+03   -0.84469E-05   -0.84470E-05  7488   0.141E-03-0.698E-06
CGA:  16    -0.344275355625E+03   -0.16308E-04   -0.16336E-04  7488   0.163E-03-0.535E-06
CGA:  17    -0.344275360834E+03   -0.52091E-05   -0.52102E-05  7488   0.543E-04-0.333E-07
  29 F= -.34427536E+03 E0= -.34425961E+03  d E =-.367738E-02  mag=    20.0000
       N       E                     dE             d eps       ncg     rms          ort
SDA:   1    -0.344024268810E+03    0.25109E+00    0.00000E+00  7488   0.869E+00 0.000E+00
CGA:   2    -0.344075846240E+03   -0.51577E-01   -0.51565E-01  7488   0.157E+01-0.259E-02
CGA:   3    -0.344195781930E+03   -0.11994E+00   -0.12030E+00  7488   0.133E+01-0.165E-01
CGA:   4    -0.344240708691E+03   -0.44927E-01   -0.45410E-01  7488   0.185E+00-0.486E-02
CGA:   5    -0.344265067010E+03   -0.24358E-01   -0.24333E-01  7488   0.233E+00 0.377E-03
CGA:   6    -0.344273619063E+03   -0.85521E-02   -0.85434E-02  7488   0.600E-01 0.668E-04
CGA:   7    -0.344276407730E+03   -0.27887E-02   -0.27884E-02  7488   0.389E-01-0.342E-05
CGA:   8    -0.344278256014E+03   -0.18483E-02   -0.18480E-02  7488   0.154E-01 0.266E-05
CGA:   9    -0.344279212556E+03   -0.95654E-03   -0.95655E-03  7488   0.128E-01 0.342E-05
CGA:  10    -0.344279944164E+03   -0.73161E-03   -0.73183E-03  7488   0.877E-02 0.269E-04
CGA:  11    -0.344280215133E+03   -0.27097E-03   -0.27088E-03  7488   0.211E-02 0.372E-05
CGA:  12    -0.344280369458E+03   -0.15432E-03   -0.15437E-03  7488   0.231E-02-0.400E-05
CGA:  13    -0.344280575422E+03   -0.20596E-03   -0.20629E-03  7488   0.469E-03-0.113E-04
CGA:  14    -0.344280595720E+03   -0.20297E-04   -0.20289E-04  7488   0.523E-03-0.828E-06
CGA:  15    -0.344280644818E+03   -0.49098E-04   -0.49111E-04  7488   0.432E-03-0.553E-06
CGA:  16    -0.344280663232E+03   -0.18414E-04   -0.18417E-04  7488   0.230E-03-0.288E-06
CGA:  17    -0.344280678185E+03   -0.14953E-04   -0.14954E-04  7488   0.215E-03-0.160E-06
CGA:  18    -0.344280687128E+03   -0.89426E-05   -0.89458E-05  7488   0.102E-03-0.133E-06
CGA:  19    -0.344280698700E+03   -0.11572E-04   -0.11528E-04  7488   0.172E-03 0.713E-06
CGA:  20    -0.344280708736E+03   -0.10035E-04   -0.10041E-04  7488   0.588E-04 0.977E-06
CGA:  21    -0.344280711198E+03   -0.24623E-05   -0.24747E-05  7488   0.437E-04 0.473E-06
  30 F= -.34428071E+03 E0= -.34426504E+03  d E =-.535036E-02  mag=    20.0000
       N       E                     dE             d eps       ncg     rms          ort
SDA:   1    -0.344061555028E+03    0.21915E+00    0.00000E+00  7488   0.113E+01 0.000E+00
CGA:   2    -0.344097005042E+03   -0.35450E-01   -0.35790E-01  7488   0.867E+00-0.411E-02
CGA:   3    -0.344211413588E+03   -0.11441E+00   -0.11466E+00  7488   0.906E+00-0.382E-02
CGA:   4    -0.344243699377E+03   -0.32286E-01   -0.32093E-01  7488   0.227E+00 0.209E-02
CGA:   5    -0.344262175898E+03   -0.18477E-01   -0.18481E-01  7488   0.268E+00-0.154E-03
CGA:   6    -0.344274695596E+03   -0.12520E-01   -0.12523E-01  7488   0.113E+00 0.747E-04
CGA:   7    -0.344278358261E+03   -0.36627E-02   -0.36802E-02  7488   0.255E-01-0.206E-03
CGA:   8    -0.344280536987E+03   -0.21787E-02   -0.21763E-02  7488   0.272E-01 0.804E-04
CGA:   9    -0.344281593054E+03   -0.10561E-02   -0.10550E-02  7488   0.118E-01 0.462E-05
CGA:  10    -0.344282124280E+03   -0.53123E-03   -0.53168E-03  7488   0.706E-02 0.164E-05
CGA:  11    -0.344282564650E+03   -0.44037E-03   -0.44039E-03  7488   0.183E-02-0.535E-05
CGA:  12    -0.344282773871E+03   -0.20922E-03   -0.20887E-03  7488   0.389E-02 0.721E-05
CGA:  13    -0.344282904359E+03   -0.13049E-03   -0.13058E-03  7488   0.668E-03 0.313E-05
CGA:  14    -0.344282935038E+03   -0.30679E-04   -0.30702E-04  7488   0.399E-03 0.696E-06
CGA:  15    -0.344282971422E+03   -0.36384E-04   -0.36355E-04  7488   0.675E-03 0.517E-06
CGA:  16    -0.344283002360E+03   -0.30938E-04   -0.30939E-04  7488   0.213E-03-0.735E-06
CGA:  17    -0.344283010529E+03   -0.81691E-05   -0.81689E-05  7488   0.935E-04-0.299E-06
CGA:  18    -0.344283021330E+03   -0.10801E-04   -0.10753E-04  7488   0.143E-03 0.661E-06
CGA:  19    -0.344283028784E+03   -0.74545E-05   -0.74606E-05  7488   0.963E-04 0.279E-06
  31 F= -.34428303E+03 E0= -.34426748E+03  d E =-.231759E-02  mag=    20.0000
       N       E                     dE             d eps       ncg     rms          ort
SDA:   1    -0.343455399904E+03    0.82762E+00    0.00000E+00  7488   0.291E+01 0.000E+00
CGA:   2    -0.343612355189E+03   -0.15696E+00   -0.15778E+00  7488   0.459E+01 0.377E-01
CGA:   3    -0.344008553937E+03   -0.39620E+00   -0.39816E+00  7488   0.357E+01-0.685E-01
CGA:   4    -0.344127592470E+03   -0.11904E+00   -0.11583E+00  7488   0.823E+00 0.432E-01
CGA:   5    -0.344204174250E+03   -0.76582E-01   -0.78217E-01  7488   0.796E+00-0.442E-01
CGA:   6    -0.344236840705E+03   -0.32666E-01   -0.32788E-01  7488   0.398E+00 0.393E-03
CGA:   7    -0.344254391685E+03   -0.17551E-01   -0.17578E-01  7488   0.219E+00 0.247E-03
CGA:   8    -0.344263313667E+03   -0.89220E-02   -0.89509E-02  7488   0.540E-01 0.498E-04
CGA:   9    -0.344266396709E+03   -0.30830E-02   -0.30842E-02  7488   0.471E-01 0.182E-03
CGA:  10    -0.344269214973E+03   -0.28183E-02   -0.28184E-02  7488   0.468E-01 0.193E-03
CGA:  11    -0.344271081525E+03   -0.18666E-02   -0.18641E-02  7488   0.585E-02 0.944E-05
CGA:  12    -0.344271667873E+03   -0.58635E-03   -0.58486E-03  7488   0.130E-01 0.350E-04
CGA:  13    -0.344272237978E+03   -0.57011E-03   -0.57025E-03  7488   0.418E-02 0.102E-04
CGA:  14    -0.344272393610E+03   -0.15563E-03   -0.15583E-03  7488   0.170E-02 0.312E-06
CGA:  15    -0.344272547786E+03   -0.15418E-03   -0.15414E-03  7488   0.140E-02 0.452E-06
CGA:  16    -0.344272612410E+03   -0.64624E-04   -0.64686E-04  7488   0.119E-02 0.150E-05
CGA:  17    -0.344272700766E+03   -0.88356E-04   -0.88306E-04  7488   0.958E-03 0.253E-05
CGA:  18    -0.344272735794E+03   -0.35028E-04   -0.35062E-04  7488   0.264E-03-0.438E-06
CGA:  19    -0.344272759702E+03   -0.23907E-04   -0.23922E-04  7488   0.541E-03-0.935E-06
CGA:  20    -0.344272795395E+03   -0.35693E-04   -0.35685E-04  7488   0.456E-03 0.311E-06
CGA:  21    -0.344272813660E+03   -0.18265E-04   -0.18275E-04  7488   0.108E-03-0.175E-06
CGA:  22    -0.344272822797E+03   -0.91368E-05   -0.91353E-05  7488   0.158E-03-0.222E-06
  32 F= -.34427282E+03 E0= -.34425719E+03  d E =0.102060E-01  mag=    20.0000
       N       E                     dE             d eps       ncg     rms          ort
SDA:   1    -0.343986869237E+03    0.28594E+00    0.00000E+00  7488   0.166E+01 0.000E+00
CGA:   2    -0.344036665676E+03   -0.49796E-01   -0.48787E-01  7488   0.106E+01 0.201E-01
CGA:   3    -0.344150947152E+03   -0.11428E+00   -0.11422E+00  7488   0.142E+01 0.852E-03
CGA:   4    -0.344209732966E+03   -0.58786E-01   -0.59038E-01  7488   0.376E+00-0.539E-04
CGA:   5    -0.344234200708E+03   -0.24468E-01   -0.24511E-01  7488   0.418E+00-0.575E-02
CGA:   6    -0.344258390725E+03   -0.24190E-01   -0.24190E-01  7488   0.227E+00 0.419E-04
CGA:   7    -0.344265361653E+03   -0.69709E-02   -0.69913E-02  7488   0.346E-01-0.341E-03
CGA:   8    -0.344268364441E+03   -0.30028E-02   -0.30020E-02  7488   0.445E-01 0.251E-04
CGA:   9    -0.344271150513E+03   -0.27861E-02   -0.27860E-02  7488   0.588E-02 0.120E-04
CGA:  10    -0.344271485805E+03   -0.33529E-03   -0.33533E-03  7488   0.808E-02 0.378E-05
CGA:  11    -0.344272064235E+03   -0.57843E-03   -0.57837E-03  7488   0.635E-02 0.309E-05
CGA:  12    -0.344272300055E+03   -0.23582E-03   -0.23559E-03  7488   0.130E-02-0.170E-05
CGA:  13    -0.344272374155E+03   -0.74100E-04   -0.74091E-04  7488   0.157E-02-0.278E-05
CGA:  14    -0.344272455089E+03   -0.80934E-04   -0.80908E-04  7488   0.927E-03-0.347E-05
CGA:  15    -0.344272509381E+03   -0.54292E-04   -0.54292E-04  7488   0.428E-03-0.546E-06
CGA:  16    -0.344272537722E+03   -0.28341E-04   -0.28342E-04  7488   0.257E-03-0.596E-06
CGA:  17    -0.344272549126E+03   -0.11403E-04   -0.11400E-04  7488   0.138E-03-0.548E-06
CGA:  18    -0.344272562083E+03   -0.12957E-04   -0.12938E-04  7488   0.280E-03 0.298E-06
CGA:  19    -0.344272574062E+03   -0.11980E-04   -0.11999E-04  7488   0.422E-04 0.741E-06
CGA:  20    -0.344272576916E+03   -0.28538E-05   -0.28532E-05  7488   0.747E-04-0.124E-06
  33 F= -.34427258E+03 E0= -.34425671E+03  d E =0.245881E-03  mag=    20.0000
       N       E                     dE             d eps       ncg     rms          ort
SDA:   1    -0.343777544916E+03    0.49503E+00    0.00000E+00  7488   0.145E+01 0.000E+00
CGA:   2    -0.343954438399E+03   -0.17689E+00   -0.17851E+00  7488   0.416E+01-0.279E-01
CGA:   3    -0.344124878949E+03   -0.17044E+00   -0.17265E+00  7488   0.187E+01 0.508E-02
CGA:   4    -0.344193129661E+03   -0.68251E-01   -0.67945E-01  7488   0.479E+00 0.336E-02
CGA:   5    -0.344247902115E+03   -0.54772E-01   -0.54387E-01  7488   0.369E+00 0.698E-02
CGA:   6    -0.344266574086E+03   -0.18672E-01   -0.18554E-01  7488   0.125E+00-0.168E-02
CGA:   7    -0.344271999659E+03   -0.54256E-02   -0.54204E-02  7488   0.941E-01 0.800E-05
CGA:   8    -0.344276449968E+03   -0.44503E-02   -0.44536E-02  7488   0.326E-01 0.535E-04
CGA:   9    -0.344278168468E+03   -0.17185E-02   -0.17195E-02  7488   0.300E-01 0.411E-04
CGA:  10    -0.344279941313E+03   -0.17728E-02   -0.17730E-02  7488   0.132E-01 0.371E-04
CGA:  11    -0.344280338785E+03   -0.39747E-03   -0.39762E-03  7488   0.464E-02-0.237E-05
CGA:  12    -0.344280941520E+03   -0.60274E-03   -0.60333E-03  7488   0.568E-02-0.813E-05
CGA:  13    -0.344281186575E+03   -0.24505E-03   -0.24493E-03  7488   0.861E-03-0.349E-05
CGA:  14    -0.344281288464E+03   -0.10189E-03   -0.10207E-03  7488   0.114E-02-0.313E-05
CGA:  15    -0.344281374638E+03   -0.86174E-04   -0.86157E-04  7488   0.604E-03 0.891E-06
CGA:  16    -0.344281402450E+03   -0.27811E-04   -0.27812E-04  7488   0.523E-03 0.543E-07
CGA:  17    -0.344281432134E+03   -0.29684E-04   -0.29680E-04  7488   0.223E-03-0.411E-06
CGA:  18    -0.344281445658E+03   -0.13524E-04   -0.13526E-04  7488   0.300E-03 0.454E-06
CGA:  19    -0.344281474384E+03   -0.28725E-04   -0.28664E-04  7488   0.309E-03 0.186E-05
CGA:  20    -0.344281483164E+03   -0.87806E-05   -0.88020E-05  7488   0.679E-04 0.474E-06
  34 F= -.34428148E+03 E0= -.34426578E+03  d E =-.890625E-02  mag=    20.0000
       N       E                     dE             d eps       ncg     rms          ort
SDA:   1    -0.344212874582E+03    0.68600E-01    0.00000E+00  7488   0.501E+00 0.000E+00
CGA:   2    -0.344229846110E+03   -0.16972E-01   -0.16675E-01  7488   0.216E+00 0.479E-02
CGA:   3    -0.344244893293E+03   -0.15047E-01   -0.15048E-01  7488   0.377E+00-0.124E-03
CGA:   4    -0.344268798638E+03   -0.23905E-01   -0.23906E-01  7488   0.111E+00 0.540E-03
[...]
CGA:  29    -0.344155455136E+03   -0.11113E-04   -0.11053E-04  7488   0.113E-03-0.312E-05
CGA:  30    -0.344155461486E+03   -0.63494E-05   -0.63604E-05  7488   0.161E-03-0.230E-05
CGA:  31    -0.344155472447E+03   -0.10961E-04   -0.11033E-04  7488   0.738E-04-0.410E-05
SDA:  32    -0.344155475314E+03   -0.28673E-05   -0.28569E-05  7488   0.718E-04-0.999E-06
  47 F= -.34415548E+03 E0= -.34414048E+03  d E =-.526315E+00  mag=    20.0000
       N       E                     dE             d eps       ncg     rms          ort
SDA:   1    -0.342494095240E+03    0.16614E+01    0.00000E+00  7488   0.108E+02 0.000E+00
CGA:   2    -0.342851246711E+03   -0.35715E+00   -0.34627E+00  7488   0.694E+01 0.947E-01
CGA:   3    -0.343518862562E+03   -0.66762E+00   -0.67399E+00  7488   0.707E+01-0.150E+00
CGA:   4    -0.343822690212E+03   -0.30383E+00   -0.31011E+00  7488   0.254E+01 0.302E+00
CGA:   5    -0.343952909304E+03   -0.13022E+00   -0.13020E+00  7488   0.320E+01-0.281E-02
CGA:   6    -0.344164087376E+03   -0.21118E+00   -0.21154E+00  7488   0.111E+01-0.186E-01
CGA:   7    -0.344206957638E+03   -0.42870E-01   -0.43192E-01  7488   0.306E+00 0.414E-02
CGA:   8    -0.344229883500E+03   -0.22926E-01   -0.22971E-01  7488   0.409E+00-0.155E-02
CGA:   9    -0.344243759837E+03   -0.13876E-01   -0.13905E-01  7488   0.112E+00 0.247E-04
CGA:  10    -0.344249850901E+03   -0.60911E-02   -0.60885E-02  7488   0.807E-01 0.551E-03
CGA:  11    -0.344254118191E+03   -0.42673E-02   -0.42670E-02  7488   0.314E-01 0.379E-03
CGA:  12    -0.344255477387E+03   -0.13592E-02   -0.13592E-02  7488   0.285E-01 0.830E-05
CGA:  13    -0.344257792007E+03   -0.23146E-02   -0.23051E-02  7488   0.244E-01 0.285E-03
CGA:  14    -0.344258779145E+03   -0.98714E-03   -0.98784E-03  7488   0.397E-02 0.218E-04
CGA:  15    -0.344259095720E+03   -0.31658E-03   -0.31619E-03  7488   0.696E-02 0.945E-05
CGA:  16    -0.344259512533E+03   -0.41681E-03   -0.41652E-03  7488   0.527E-02 0.343E-04
CGA:  17    -0.344259702842E+03   -0.19031E-03   -0.19060E-03  7488   0.887E-03 0.331E-05
CGA:  18    -0.344259796237E+03   -0.93395E-04   -0.93503E-04  7488   0.172E-02-0.322E-05
CGA:  19    -0.344259861280E+03   -0.65044E-04   -0.65081E-04  7488   0.744E-03-0.233E-05
CGA:  20    -0.344259919056E+03   -0.57776E-04   -0.57843E-04  7488   0.809E-03-0.399E-05
CGA:  21    -0.344259961837E+03   -0.42780E-04   -0.42775E-04  7488   0.203E-03-0.283E-05
CGA:  22    -0.344259975602E+03   -0.13765E-04   -0.13787E-04  7488   0.298E-03-0.227E-05
CGA:  23    -0.344259999937E+03   -0.24335E-04   -0.24454E-04  7488   0.310E-03-0.496E-05
CGA:  24    -0.344260009802E+03   -0.98651E-05   -0.98211E-05  7488   0.548E-04-0.258E-05
  48 F= -.34426001E+03 E0= -.34424456E+03  d E =-.104534E+00  mag=    20.0000
       N       E                     dE             d eps       ncg     rms          ort
SDA:   1    -0.343813868241E+03    0.44613E+00    0.00000E+00  7488   0.226E+01 0.000E+00
CGA:   2    -0.343912652148E+03   -0.98784E-01   -0.97894E-01  7488   0.234E+01-0.408E-02
CGA:   3    -0.344090948336E+03   -0.17830E+00   -0.17843E+00  7488   0.177E+01-0.603E-02
CGA:   4    -0.344166751200E+03   -0.75803E-01   -0.76448E-01  7488   0.662E+00 0.544E-02
CGA:   5    -0.344209258642E+03   -0.42507E-01   -0.42514E-01  7488   0.879E+00-0.553E-03
CGA:   6    -0.344255151365E+03   -0.45893E-01   -0.45887E-01  7488   0.382E+00-0.155E-03
CGA:   7    -0.344267879756E+03   -0.12728E-01   -0.12692E-01  7488   0.771E-01 0.500E-03
CGA:   8    -0.344274734095E+03   -0.68543E-02   -0.68438E-02  7488   0.682E-01 0.292E-03
CGA:   9    -0.344278157545E+03   -0.34235E-02   -0.34260E-02  7488   0.225E-01 0.101E-03
CGA:  10    -0.344279378808E+03   -0.12213E-02   -0.12215E-02  7488   0.245E-01 0.298E-04
CGA:  11    -0.344280319340E+03   -0.94053E-03   -0.93983E-03  7488   0.522E-02 0.720E-05
CGA:  12    -0.344280909230E+03   -0.58989E-03   -0.58874E-03  7488   0.841E-02 0.205E-04
CGA:  13    -0.344281323292E+03   -0.41406E-03   -0.41426E-03  7488   0.174E-02 0.108E-04
CGA:  14    -0.344281401955E+03   -0.78663E-04   -0.78680E-04  7488   0.146E-02 0.140E-05
CGA:  15    -0.344281508022E+03   -0.10607E-03   -0.10601E-03  7488   0.179E-02 0.342E-05
CGA:  16    -0.344281596623E+03   -0.88601E-04   -0.88650E-04  7488   0.426E-03 0.321E-05
CGA:  17    -0.344281616621E+03   -0.19998E-04   -0.20009E-04  7488   0.352E-03 0.519E-06
CGA:  18    -0.344281639808E+03   -0.23187E-04   -0.23186E-04  7488   0.387E-03-0.183E-06
CGA:  19    -0.344281660309E+03   -0.20501E-04   -0.20496E-04  7488   0.163E-03-0.872E-06
CGA:  20    -0.344281677751E+03   -0.17443E-04   -0.17491E-04  7488   0.122E-03-0.116E-05
CGA:  21    -0.344281682177E+03   -0.44254E-05   -0.44164E-05  7488   0.711E-04-0.542E-06
  49 F= -.34428168E+03 E0= -.34426604E+03  d E =-.216724E-01  mag=    20.0000
       N       E                     dE             d eps       ncg     rms          ort
SDA:   1    -0.344130332537E+03    0.15135E+00    0.00000E+00  7488   0.140E+01 0.000E+00
CGA:   2    -0.344164153813E+03   -0.33821E-01   -0.34805E-01  7488   0.540E+00-0.233E-01
CGA:   3    -0.344220875444E+03   -0.56722E-01   -0.56646E-01  7488   0.802E+00 0.155E-02
CGA:   4    -0.344252795630E+03   -0.31920E-01   -0.31703E-01  7488   0.169E+00 0.578E-03
CGA:   5    -0.344270490331E+03   -0.17695E-01   -0.17656E-01  7488   0.265E+00 0.838E-03
CGA:   6    -0.344281903694E+03   -0.11413E-01   -0.11430E-01  7488   0.119E+00 0.856E-04
CGA:   7    -0.344285600294E+03   -0.36966E-02   -0.36763E-02  7488   0.200E-01 0.349E-03
CGA:   8    -0.344287567718E+03   -0.19674E-02   -0.19682E-02  7488   0.250E-01-0.154E-04
CGA:   9    -0.344288692997E+03   -0.11253E-02   -0.11260E-02  7488   0.661E-02 0.980E-05
CGA:  10    -0.344288926464E+03   -0.23347E-03   -0.23388E-03  7488   0.408E-02-0.340E-05
CGA:  11    -0.344289237734E+03   -0.31127E-03   -0.31132E-03  7488   0.289E-02-0.124E-05
CGA:  12    -0.344289384148E+03   -0.14641E-03   -0.14644E-03  7488   0.170E-02 0.232E-05
CGA:  13    -0.344289498547E+03   -0.11440E-03   -0.11438E-03  7488   0.120E-02 0.255E-05
CGA:  14    -0.344289535594E+03   -0.37047E-04   -0.37065E-04  7488   0.375E-03-0.193E-06
CGA:  15    -0.344289572932E+03   -0.37338E-04   -0.37333E-04  7488   0.544E-03 0.521E-07
CGA:  16    -0.344289603805E+03   -0.30872E-04   -0.30875E-04  7488   0.234E-03 0.188E-06
CGA:  17    -0.344289611218E+03   -0.74131E-05   -0.74262E-05  7488   0.884E-04 0.368E-06
  50 F= -.34428961E+03 E0= -.34427393E+03  d E =-.792904E-02  mag=    20.0000
       N       E                     dE             d eps       ncg     rms          ort
SDA:   1    -0.344177501160E+03    0.11210E+00    0.00000E+00  7488   0.910E+00 0.000E+00
CGA:   2    -0.344202937196E+03   -0.25436E-01   -0.25473E-01  7488   0.415E+00-0.183E-03
CGA:   3    -0.344236248261E+03   -0.33311E-01   -0.33364E-01  7488   0.588E+00-0.186E-02
CGA:   4    -0.344267278369E+03   -0.31030E-01   -0.31033E-01  7488   0.156E+00 0.131E-03
CGA:   5    -0.344276729668E+03   -0.94513E-02   -0.94529E-02  7488   0.141E+00-0.977E-03
CGA:   6    -0.344287860002E+03   -0.11130E-01   -0.11128E-01  7488   0.931E-01 0.103E-03
CGA:   7    -0.344290490618E+03   -0.26306E-02   -0.26396E-02  7488   0.210E-01-0.160E-03
CGA:   8    -0.344291514942E+03   -0.10243E-02   -0.10249E-02  7488   0.148E-01 0.163E-04
CGA:   9    -0.344292753989E+03   -0.12390E-02   -0.12399E-02  7488   0.636E-02-0.258E-04
CGA:  10    -0.344292969475E+03   -0.21549E-03   -0.21573E-03  7488   0.356E-02-0.410E-05
CGA:  11    -0.344293203002E+03   -0.23353E-03   -0.23356E-03  7488   0.185E-02-0.308E-05
CGA:  12    -0.344293307937E+03   -0.10494E-03   -0.10493E-03  7488   0.141E-02-0.101E-05
CGA:  13    -0.344293409768E+03   -0.10183E-03   -0.10186E-03  7488   0.135E-02-0.213E-05
CGA:  14    -0.344293450585E+03   -0.40817E-04   -0.40814E-04  7488   0.254E-03-0.205E-05
CGA:  15    -0.344293471575E+03   -0.20989E-04   -0.20981E-04  7488   0.328E-03 0.290E-06
CGA:  16    -0.344293498517E+03   -0.26942E-04   -0.26957E-04  7488   0.259E-03-0.631E-06
CGA:  17    -0.344293506639E+03   -0.81215E-05   -0.81110E-05  7488   0.661E-04-0.405E-06
  51 F= -.34429351E+03 E0= -.34427786E+03  d E =-.389542E-02  mag=    20.0000
       N       E                     dE             d eps       ncg     rms          ort
SDA:   1    -0.344274439239E+03    0.19059E-01    0.00000E+00  7488   0.290E+00 0.000E+00
CGA:   2    -0.344280575128E+03   -0.61359E-02   -0.62873E-02  7488   0.527E-01-0.475E-02
CGA:   3    -0.344284703251E+03   -0.41281E-02   -0.41285E-02  7488   0.100E+00-0.181E-05
CGA:   4    -0.344290873020E+03   -0.61698E-02   -0.61698E-02  7488   0.193E-01 0.980E-05
CGA:   5    -0.344292278501E+03   -0.14055E-02   -0.14063E-02  7488   0.245E-01-0.386E-04
CGA:   6    -0.344293667917E+03   -0.13894E-02   -0.13895E-02  7488   0.153E-01-0.127E-06
CGA:   7    -0.344294131609E+03   -0.46369E-03   -0.46331E-03  7488   0.229E-02-0.213E-05
CGA:   8    -0.344294297034E+03   -0.16543E-03   -0.16546E-03  7488   0.260E-02-0.184E-05
CGA:   9    -0.344294449082E+03   -0.15205E-03   -0.15205E-03  7488   0.159E-02-0.147E-05
CGA:  10    -0.344294496760E+03   -0.47678E-04   -0.47637E-04  7488   0.274E-03-0.186E-05
CGA:  11    -0.344294522948E+03   -0.26188E-04   -0.26304E-04  7488   0.514E-03-0.291E-05
CGA:  12    -0.344294553786E+03   -0.30837E-04   -0.30844E-04  7488   0.139E-03-0.394E-05
CGA:  13    -0.344294558072E+03   -0.42860E-05   -0.42681E-05  7488   0.698E-04-0.652E-06
  52 F= -.34429456E+03 E0= -.34427896E+03  d E =-.105143E-02  mag=    20.0000
       N       E                     dE             d eps       ncg     rms          ort
SDA:   1    -0.344282157295E+03    0.12396E-01    0.00000E+00  7488   0.203E+00 0.000E+00
CGA:   2    -0.344286948876E+03   -0.47916E-02   -0.48985E-02  7488   0.371E-01-0.279E-02
CGA:   3    -0.344288840649E+03   -0.18918E-02   -0.18920E-02  7488   0.425E-01 0.217E-04
CGA:   4    -0.344292418622E+03   -0.35780E-02   -0.35787E-02  7488   0.318E-01-0.205E-04
CGA:   5    -0.344293857558E+03   -0.14389E-02   -0.14377E-02  7488   0.100E-01-0.237E-04
CGA:   6    -0.344294491603E+03   -0.63405E-03   -0.63393E-03  7488   0.100E-01 0.108E-04
CGA:   7    -0.344294919480E+03   -0.42788E-03   -0.42789E-03  7488   0.380E-02-0.104E-05
CGA:   8    -0.344295124509E+03   -0.20503E-03   -0.20501E-03  7488   0.226E-02-0.463E-05
CGA:   9    -0.344295247304E+03   -0.12279E-03   -0.12278E-03  7488   0.536E-03-0.489E-05
CGA:  10    -0.344295267954E+03   -0.20649E-04   -0.20631E-04  7488   0.499E-03-0.122E-05
CGA:  11    -0.344295314216E+03   -0.46262E-04   -0.46380E-04  7488   0.188E-03-0.316E-05
CGA:  12    -0.344295321978E+03   -0.77627E-05   -0.77364E-05  7488   0.825E-04-0.158E-05
  53 F= -.34429532E+03 E0= -.34427976E+03  d E =-.763907E-03  mag=    20.0000
       N       E                     dE             d eps       ncg     rms          ort
SDA:   1    -0.344279875970E+03    0.15438E-01    0.00000E+00  7488   0.577E+00 0.000E+00
CGA:   2    -0.344290227287E+03   -0.10351E-01   -0.10223E-01  7488   0.242E-01 0.605E-02
CGA:   3    -0.344291473886E+03   -0.12466E-02   -0.12458E-02  7488   0.182E-01-0.548E-04
CGA:   4    -0.344293305724E+03   -0.18318E-02   -0.18319E-02  7488   0.379E-01 0.313E-05
CGA:   5    -0.344294795848E+03   -0.14901E-02   -0.14901E-02  7488   0.599E-02 0.239E-05
CGA:   6    -0.344295052003E+03   -0.25616E-03   -0.25629E-03  7488   0.366E-02-0.309E-06
CGA:   7    -0.344295430734E+03   -0.37873E-03   -0.37895E-03  7488   0.233E-02-0.481E-05
CGA:   8    -0.344295498124E+03   -0.67390E-04   -0.67329E-04  7488   0.708E-03-0.313E-06
CGA:   9    -0.344295534303E+03   -0.36178E-04   -0.36169E-04  7488   0.539E-03-0.103E-05
CGA:  10    -0.344295561935E+03   -0.27632E-04   -0.27623E-04  7488   0.172E-03-0.152E-05
CGA:  11    -0.344295584086E+03   -0.22151E-04   -0.22246E-04  7488   0.741E-04-0.130E-05
CGA:  12    -0.344295587333E+03   -0.32475E-05   -0.32371E-05  7488   0.402E-04-0.630E-06
  54 F= -.34429559E+03 E0= -.34428004E+03  d E =-.265355E-03  mag=    20.0000
       N       E                     dE             d eps       ncg     rms          ort
SDA:   1    -0.344254349996E+03    0.41234E-01    0.00000E+00  7488   0.381E+00 0.000E+00
CGA:   2    -0.344263281608E+03   -0.89316E-02   -0.89182E-02  7488   0.112E+00 0.426E-03
CGA:   3    -0.344277665362E+03   -0.14384E-01   -0.14384E-01  7488   0.204E+00 0.196E-04
CGA:   4    -0.344286998584E+03   -0.93332E-02   -0.93348E-02  7488   0.679E-01 0.134E-04
CGA:   5    -0.344289392347E+03   -0.23938E-02   -0.23900E-02  7488   0.390E-01 0.588E-04
CGA:   6    -0.344292777694E+03   -0.33853E-02   -0.33834E-02  7488   0.303E-01 0.630E-04
CGA:   7    -0.344294095867E+03   -0.13182E-02   -0.13179E-02  7488   0.470E-02 0.889E-05
CGA:   8    -0.344294373700E+03   -0.27783E-03   -0.27782E-03  7488   0.505E-02-0.314E-05
CGA:   9    -0.344294687646E+03   -0.31395E-03   -0.31395E-03  7488   0.284E-02-0.358E-05
CGA:  10    -0.344294775564E+03   -0.87917E-04   -0.87857E-04  7488   0.828E-03-0.172E-05
CGA:  11    -0.344294842907E+03   -0.67344E-04   -0.67421E-04  7488   0.730E-03-0.323E-05
CGA:  12    -0.344294874094E+03   -0.31186E-04   -0.31149E-04  7488   0.443E-03-0.219E-05
CGA:  13    -0.344294900952E+03   -0.26859E-04   -0.26861E-04  7488   0.368E-03-0.192E-05
CGA:  14    -0.344294918268E+03   -0.17316E-04   -0.17307E-04  7488   0.647E-04-0.759E-06
CGA:  15    -0.344294924152E+03   -0.58843E-05   -0.58889E-05  7488   0.106E-03-0.178E-06
  55 F= -.34429492E+03 E0= -.34427937E+03  d E =0.663181E-03  mag=    20.0000
       N       E                     dE             d eps       ncg     rms          ort
SDA:   1    -0.344212247134E+03    0.82671E-01    0.00000E+00  7488   0.728E+00 0.000E+00
CGA:   2    -0.344228732975E+03   -0.16486E-01   -0.16878E-01  7488   0.247E+00-0.108E-01
CGA:   3    -0.344259104591E+03   -0.30372E-01   -0.30284E-01  7488   0.356E+00 0.137E-02
CGA:   4    -0.344277272429E+03   -0.18168E-01   -0.18145E-01  7488   0.116E+00-0.508E-03
CGA:   5    -0.344282167997E+03   -0.48956E-02   -0.48901E-02  7488   0.765E-01 0.129E-04
CGA:   6    -0.344288011750E+03   -0.58438E-02   -0.58384E-02  7488   0.777E-01 0.239E-03
CGA:   7    -0.344290652547E+03   -0.26408E-02   -0.26292E-02  7488   0.847E-02 0.142E-03
CGA:   8    -0.344291248926E+03   -0.59638E-03   -0.59654E-03  7488   0.129E-01-0.726E-05
CGA:   9    -0.344291909022E+03   -0.66010E-03   -0.66013E-03  7488   0.577E-02 0.328E-05
CGA:  10    -0.344292105364E+03   -0.19634E-03   -0.19658E-03  7488   0.113E-02-0.333E-05
CGA:  11    -0.344292225799E+03   -0.12044E-03   -0.12049E-03  7488   0.182E-02-0.972E-06
CGA:  12    -0.344292323731E+03   -0.97931E-04   -0.97916E-04  7488   0.115E-02-0.261E-05
CGA:  13    -0.344292359039E+03   -0.35309E-04   -0.35281E-04  7488   0.211E-03-0.125E-05
CGA:  14    -0.344292381277E+03   -0.22238E-04   -0.22212E-04  7488   0.337E-03 0.544E-06
CGA:  15    -0.344292397892E+03   -0.16615E-04   -0.16619E-04  7488   0.205E-03 0.265E-06
CGA:  16    -0.344292407620E+03   -0.97276E-05   -0.97271E-05  7488   0.124E-03-0.156E-06
  56 F= -.34429241E+03 E0= -.34427685E+03  d E =0.251653E-02  mag=    20.0000
       N       E                     dE             d eps       ncg     rms          ort
SDA:   1    -0.344140851180E+03    0.15155E+00    0.00000E+00  7488   0.518E+00 0.000E+00
CGA:   2    -0.344174470456E+03   -0.33619E-01   -0.33627E-01  7488   0.905E+00-0.909E-03
CGA:   3    -0.344240595567E+03   -0.66125E-01   -0.66110E-01  7488   0.571E+00 0.861E-03
CGA:   4    -0.344258852463E+03   -0.18257E-01   -0.18130E-01  7488   0.167E+00 0.208E-02
CGA:   5    -0.344271984589E+03   -0.13132E-01   -0.13135E-01  7488   0.192E+00-0.998E-04
CGA:   6    -0.344281451189E+03   -0.94666E-02   -0.94663E-02  7488   0.977E-01 0.293E-04
CGA:   7    -0.344284439550E+03   -0.29884E-02   -0.29925E-02  7488   0.149E-01-0.502E-04
CGA:   8    -0.344286377966E+03   -0.19384E-02   -0.19369E-02  7488   0.136E-01 0.242E-04
CGA:   9    -0.344286934724E+03   -0.55676E-03   -0.55700E-03  7488   0.585E-02 0.196E-05
CGA:  10    -0.344287219580E+03   -0.28486E-03   -0.28474E-03  7488   0.501E-02-0.837E-06
CGA:  11    -0.344287445466E+03   -0.22589E-03   -0.22599E-03  7488   0.154E-02 0.118E-05
CGA:  12    -0.344287614034E+03   -0.16857E-03   -0.16840E-03  7488   0.208E-02 0.383E-05
CGA:  13    -0.344287687544E+03   -0.73510E-04   -0.73522E-04  7488   0.509E-03 0.403E-06
CGA:  14    -0.344287711294E+03   -0.23750E-04   -0.23752E-04  7488   0.373E-03 0.457E-07
CGA:  15    -0.344287746684E+03   -0.35390E-04   -0.35344E-04  7488   0.529E-03 0.119E-05
CGA:  16    -0.344287774836E+03   -0.28152E-04   -0.28163E-04  7488   0.147E-03 0.109E-05
CGA:  17    -0.344287780070E+03   -0.52336E-05   -0.52344E-05  7488   0.119E-03-0.118E-06
CGA:  18    -0.344287797530E+03   -0.17460E-04   -0.17476E-04  7488   0.131E-03-0.258E-06
CGA:  19    -0.344287805068E+03   -0.75375E-05   -0.75389E-05  7488   0.953E-04 0.129E-06
  57 F= -.34428781E+03 E0= -.34427219E+03  d E =0.460255E-02  mag=    20.0000
       N       E                     dE             d eps       ncg     rms          ort
SDA:   1    -0.344223548148E+03    0.64249E-01    0.00000E+00  7488   0.457E+00 0.000E+00
CGA:   2    -0.344235037019E+03   -0.11489E-01   -0.11283E-01  7488   0.189E+00 0.605E-02
CGA:   3    -0.344260032174E+03   -0.24995E-01   -0.25003E-01  7488   0.308E+00-0.113E-03
CGA:   4    -0.344273403898E+03   -0.13372E-01   -0.13363E-01  7488   0.935E-01 0.787E-05
CGA:   5    -0.344277060673E+03   -0.36568E-02   -0.36527E-02  7488   0.627E-01 0.524E-04
CGA:   6    -0.344282295863E+03   -0.52352E-02   -0.52353E-02  7488   0.424E-01 0.663E-05
CGA:   7    -0.344284012667E+03   -0.17168E-02   -0.17229E-02  7488   0.611E-02-0.970E-06
CGA:   8    -0.344284558026E+03   -0.54536E-03   -0.54535E-03  7488   0.875E-02 0.927E-06
CGA:   9    -0.344284993627E+03   -0.43560E-03   -0.43551E-03  7488   0.232E-02-0.151E-05
CGA:  10    -0.344285084372E+03   -0.90745E-04   -0.90782E-04  7488   0.164E-02-0.255E-06
CGA:  11    -0.344285192561E+03   -0.10819E-03   -0.10818E-03  7488   0.909E-03 0.201E-05
CGA:  12    -0.344285240906E+03   -0.48345E-04   -0.48355E-04  7488   0.820E-03 0.119E-05
CGA:  13    -0.344285285533E+03   -0.44627E-04   -0.44636E-04  7488   0.537E-03 0.126E-05
CGA:  14    -0.344285305030E+03   -0.19497E-04   -0.19513E-04  7488   0.993E-04 0.523E-06
CGA:  15    -0.344285319642E+03   -0.14612E-04   -0.14455E-04  7488   0.189E-03 0.178E-05
CGA:  16    -0.344285331527E+03   -0.11885E-04   -0.11886E-04  7488   0.846E-04 0.350E-06
CGA:  17    -0.344285334187E+03   -0.26595E-05   -0.26576E-05  7488   0.321E-04-0.106E-06
  58 F= -.34428533E+03 E0= -.34426966E+03  d E =0.247088E-02  mag=    20.0000
       N       E                     dE             d eps       ncg     rms          ort
SDA:   1    -0.344275247571E+03    0.10084E-01    0.00000E+00  7488   0.278E+00 0.000E+00
CGA:   2    -0.344281113888E+03   -0.58663E-02   -0.57886E-02  7488   0.227E-01 0.287E-02
CGA:   3    -0.344282074236E+03   -0.96035E-03   -0.95950E-03  7488   0.215E-01 0.660E-05
CGA:   4    -0.344284459500E+03   -0.23853E-02   -0.23857E-02  7488   0.145E-01-0.859E-05
CGA:   5    -0.344285007214E+03   -0.54771E-03   -0.54797E-03  7488   0.654E-02-0.202E-05
CGA:   6    -0.344285463889E+03   -0.45668E-03   -0.45667E-03  7488   0.744E-02 0.906E-06
CGA:   7    -0.344285779640E+03   -0.31575E-03   -0.31563E-03  7488   0.184E-02-0.222E-05
CGA:   8    -0.344285923696E+03   -0.14406E-03   -0.14414E-03  7488   0.763E-03-0.491E-05
CGA:   9    -0.344285965698E+03   -0.42001E-04   -0.42012E-04  7488   0.302E-03 0.106E-05
CGA:  10    -0.344285985652E+03   -0.19954E-04   -0.19954E-04  7488   0.432E-03 0.686E-07
CGA:  11    -0.344286005321E+03   -0.19669E-04   -0.19661E-04  7488   0.771E-04-0.440E-06
CGA:  12    -0.344286008870E+03   -0.35495E-05   -0.35491E-05  7488   0.601E-04-0.112E-07
  59 F= -.34428601E+03 E0= -.34427035E+03  d E =-.674684E-03  mag=    20.0000
