       N       E                     dE             d eps       ncg     rms          ort
DAV:   1     0.539881992745E+04    0.53988E+04   -0.25757E+05  7488   0.160E+03
DAV:   2     0.280208771400E+03   -0.51186E+04   -0.48582E+04  7488   0.451E+02
DAV:   3    -0.378471748302E+03   -0.65868E+03   -0.64362E+03  7488   0.173E+02
DAV:   4    -0.403899345887E+03   -0.25428E+02   -0.25004E+02  7488   0.394E+01
DAV:   5    -0.404874665400E+03   -0.97532E+00   -0.97096E+00  7488   0.679E+00
SDA:   6    -0.183074025214E+03    0.22180E+03   -0.97096E+00  7488   0.134E+04 0.000E+00
CGA:   7    -0.192577534348E+03   -0.95035E+01   -0.95718E+02  7488   0.297E+04-0.317E+03
CGA:   8    -0.215825426824E+03   -0.23248E+02   -0.91346E+02  7488   0.161E+04-0.734E+03
CGA:   9    -0.291383226478E+03   -0.75558E+02   -0.28342E+02  7488   0.450E+03-0.401E+03
CGA:  10    -0.270278476142E+03    0.21105E+02   -0.18091E+02  7488   0.176E+04-0.153E+03
CGA:  11    -0.266675667222E+03    0.36028E+01   -0.48552E+02  7488   0.240E+04-0.880E+03
CGA:  12    -0.299823089172E+03   -0.33147E+02   -0.25448E+02  7488   0.660E+03 0.406E+03
CGA:  13    -0.294484774500E+03    0.53383E+01   -0.27072E+02  7488   0.101E+04-0.678E+03
CGA:  14    -0.292629003079E+03    0.18558E+01   -0.46285E+02  7488   0.137E+04-0.949E+03
CGA:  15    -0.293841402998E+03   -0.12124E+01   -0.52680E+02  7488   0.223E+04-0.197E+04
CGA:  16    -0.286075427418E+03    0.77660E+01   -0.92262E+02  7488   0.153E+04-0.127E+04
CGA:  17    -0.296907954597E+03   -0.10833E+02   -0.53989E+02  7488   0.250E+04-0.280E+04
CGA:  18    -0.293784043220E+03    0.31239E+01   -0.94140E+02  7488   0.143E+04-0.134E+04
CGA:  19    -0.315050884018E+03   -0.21267E+02   -0.43988E+02  7488   0.122E+04-0.182E+04
CGA:  20    -0.311985981825E+03    0.30649E+01   -0.43075E+02  7488   0.121E+04-0.112E+04
CGA:  21    -0.326315608323E+03   -0.14330E+02   -0.31816E+02  7488   0.573E+03-0.926E+03
CGA:  22    -0.330593258805E+03   -0.42777E+01   -0.15716E+02  7488   0.373E+03-0.485E+03
CGA:  23    -0.336065013925E+03   -0.54718E+01   -0.60242E+01  7488   0.242E+02-0.388E+02
CGA:  24    -0.336890179161E+03   -0.82517E+00   -0.63821E+00  7488   0.113E+02 0.355E+01
CGA:  25    -0.338301713525E+03   -0.14115E+01   -0.24199E+01  7488   0.153E+03-0.107E+02
CGA:  26    -0.338971644291E+03   -0.66993E+00   -0.55699E+01  7488   0.923E+02-0.654E+02
CGA:  27    -0.339918965263E+03   -0.94732E+00   -0.63075E+00  7488   0.407E+02 0.269E+02
CGA:  28    -0.340551184714E+03   -0.63222E+00   -0.39637E+00  7488   0.178E+02 0.307E+02
CGA:  29    -0.340927904940E+03   -0.37672E+00   -0.23992E+00  7488   0.568E+01 0.946E+01
CGA:  30    -0.341146821857E+03   -0.21892E+00   -0.18319E+00  7488   0.344E+01 0.788E+00
CGA:  31    -0.341657657158E+03   -0.51084E+00   -0.58169E+00  7488   0.346E+02-0.151E+01
CGA:  32    -0.340869221268E+03    0.78844E+00   -0.31526E+00  7488   0.128E+03-0.980E+02
CGA:  33    -0.340453609338E+03    0.41561E+00   -0.27735E+01  7488   0.240E+03-0.116E+03
CGA:  34    -0.339691092080E+03    0.76252E+00   -0.38581E+01  7488   0.409E+03-0.321E+03
CGA:  35    -0.336400038426E+03    0.32911E+01   -0.77424E+01  7488   0.710E+03-0.449E+03
CGA:  36    -0.327238402921E+03    0.91616E+01   -0.14623E+02  7488   0.171E+04-0.103E+04
CGA:  37    -0.321504442896E+03    0.57340E+01   -0.33836E+02  7488   0.178E+04-0.138E+04
CGA:  38    -0.314722971958E+03    0.67815E+01   -0.39106E+02  7488   0.165E+04-0.138E+04
CGA:  39    -0.333123698696E+03   -0.18401E+02   -0.26927E+02  7488   0.784E+03-0.138E+04
CGA:  40    -0.337125166011E+03   -0.40015E+01   -0.13333E+02  7488   0.671E+03-0.874E+03
CGA:  41    -0.339318415422E+03   -0.21932E+01   -0.10704E+02  7488   0.373E+03-0.467E+03
CGA:  42    -0.342021727192E+03   -0.27033E+01   -0.50568E+01  7488   0.111E+03-0.212E+03
CGA:  43    -0.342922903214E+03   -0.90118E+00   -0.12128E+01  7488   0.949E+01-0.262E+02
CGA:  44    -0.343033526927E+03   -0.11062E+00   -0.10180E+00  7488   0.122E+01 0.518E+00
CGA:  45    -0.343194292839E+03   -0.16077E+00   -0.16396E+00  7488   0.624E+01-0.527E-01
CGA:  46    -0.343501774221E+03   -0.30748E+00   -0.30923E+00  7488   0.353E+01 0.288E+00
CGA:  47    -0.343571099347E+03   -0.69325E-01   -0.52724E-01  7488   0.122E+01 0.100E+01
CGA:  48    -0.343607545472E+03   -0.36446E-01   -0.38103E-01  7488   0.125E+01-0.400E-01
CGA:  49    -0.343647763832E+03   -0.40218E-01   -0.42012E-01  7488   0.234E+01 0.578E-03
CGA:  50    -0.343754175174E+03   -0.10641E+00   -0.10378E+00  7488   0.294E+01-0.453E-01
CGA:  51    -0.343797379360E+03   -0.43204E-01   -0.33809E-01  7488   0.183E+01 0.641E+00
CGA:  52    -0.343827424577E+03   -0.30045E-01   -0.27927E-01  7488   0.101E+01 0.129E+00
CGA:  53    -0.343841423039E+03   -0.13998E-01   -0.13947E-01  7488   0.790E+00 0.202E-02
CGA:  54    -0.343855526671E+03   -0.14104E-01   -0.15081E-01  7488   0.125E+01-0.319E-01
CGA:  55    -0.343883528796E+03   -0.28002E-01   -0.31749E-01  7488   0.224E+01-0.271E-01
CGA:  56    -0.343949059555E+03   -0.65531E-01   -0.64729E-01  7488   0.185E+01 0.702E-01
CGA:  57    -0.343982065500E+03   -0.33006E-01   -0.27813E-01  7488   0.747E+00 0.277E+00
CGA:  58    -0.343995458439E+03   -0.13393E-01   -0.13172E-01  7488   0.409E+00 0.956E-02
CGA:  59    -0.344005098392E+03   -0.96400E-02   -0.10009E-01  7488   0.523E+00-0.477E-02
CGA:  60    -0.344020195209E+03   -0.15097E-01   -0.15787E-01  7488   0.759E+00 0.159E-01
CGA:  61    -0.344055099134E+03   -0.34904E-01   -0.34362E-01  7488   0.801E+00 0.675E-01
CGA:  62    -0.344081183356E+03   -0.26084E-01   -0.25622E-01  7488   0.288E+00-0.471E-02
CGA:  63    -0.344089541517E+03   -0.83582E-02   -0.84192E-02  7488   0.160E+00 0.778E-03
CGA:  64    -0.344100797550E+03   -0.11256E-01   -0.10855E-01  7488   0.356E+00 0.122E-01
CGA:  65    -0.344124380261E+03   -0.23583E-01   -0.22778E-01  7488   0.218E+00 0.320E-01
CGA:  66    -0.344137557681E+03   -0.13177E-01   -0.13124E-01  7488   0.192E+00 0.250E-02
CGA:  67    -0.344151652660E+03   -0.14095E-01   -0.13875E-01  7488   0.121E+00 0.622E-02
CGA:  68    -0.344157474450E+03   -0.58218E-02   -0.58083E-02  7488   0.751E-01 0.235E-02
CGA:  69    -0.344163467687E+03   -0.59932E-02   -0.60226E-02  7488   0.118E+00-0.923E-03
CGA:  70    -0.344171855249E+03   -0.83876E-02   -0.82561E-02  7488   0.108E+00 0.414E-02
CGA:  71    -0.344177056128E+03   -0.52009E-02   -0.52002E-02  7488   0.320E-01 0.111E-02
CGA:  72    -0.344179569587E+03   -0.25135E-02   -0.24931E-02  7488   0.417E-01 0.591E-03
SDA:  73    -0.344183831852E+03   -0.42623E-02   -0.44087E-02  7488   0.445E-01-0.286E-02
CGA:  74    -0.344185759109E+03   -0.19273E-02   -0.19263E-02  7488   0.154E-01-0.366E-04
CGA:  75    -0.344187996658E+03   -0.22375E-02   -0.22685E-02  7488   0.286E-01-0.387E-03
CGA:  76    -0.344190814473E+03   -0.28178E-02   -0.28549E-02  7488   0.586E-01-0.763E-03
CGA:  77    -0.344194886901E+03   -0.40724E-02   -0.40809E-02  7488   0.729E-01-0.381E-03
CGA:  78    -0.344198039209E+03   -0.31523E-02   -0.31250E-02  7488   0.601E-02-0.119E-03
CGA:  79    -0.344198301999E+03   -0.26279E-03   -0.26270E-03  7488   0.241E-02 0.111E-04
CGA:  80    -0.344198646350E+03   -0.34435E-03   -0.34320E-03  7488   0.589E-02 0.899E-05
CGA:  81    -0.344198853578E+03   -0.20723E-03   -0.20615E-03  7488   0.230E-02 0.321E-04
CGA:  82    -0.344199062518E+03   -0.20894E-03   -0.20913E-03  7488   0.205E-02-0.623E-05
CGA:  83    -0.344199198529E+03   -0.13601E-03   -0.13605E-03  7488   0.210E-02-0.103E-04
CGA:  84    -0.344199377484E+03   -0.17895E-03   -0.18183E-03  7488   0.537E-02-0.103E-03
CGA:  85    -0.344199656995E+03   -0.27951E-03   -0.26226E-03  7488   0.297E-02-0.393E-03
CGA:  86    -0.344199717954E+03   -0.60959E-04   -0.59337E-04  7488   0.104E-02 0.139E-04
CGA:  87    -0.344199745776E+03   -0.27822E-04   -0.27423E-04  7488   0.574E-03-0.484E-05
CGA:  88    -0.344199768248E+03   -0.22472E-04   -0.22239E-04  7488   0.836E-03-0.704E-05
CGA:  89    -0.344199809585E+03   -0.41337E-04   -0.41110E-04  7488   0.112E-02-0.181E-04
CGA:  90    -0.344199838782E+03   -0.29197E-04   -0.28846E-04  7488   0.687E-03-0.373E-05
CGA:  91    -0.344199859130E+03   -0.20348E-04   -0.20173E-04  7488   0.509E-03-0.237E-05
CGA:  92    -0.344199873493E+03   -0.14362E-04   -0.14275E-04  7488   0.426E-03 0.311E-06
CGA:  93    -0.344199889915E+03   -0.16423E-04   -0.16432E-04  7488   0.545E-03 0.174E-05
CGA:  94    -0.344199906005E+03   -0.16090E-04   -0.16182E-04  7488   0.449E-03 0.534E-05
CGA:  95    -0.344199922612E+03   -0.16606E-04   -0.16667E-04  7488   0.675E-03 0.751E-05
CGA:  96    -0.344199947659E+03   -0.25047E-04   -0.24839E-04  7488   0.728E-03 0.126E-04
CGA:  97    -0.344199963227E+03   -0.15567E-04   -0.15226E-04  7488   0.368E-03 0.321E-04
CGA:  98    -0.344199970582E+03   -0.73557E-05   -0.74395E-05  7488   0.213E-03 0.811E-05
   1 F= -.34419997E+03 E0= -.34418370E+03  d E =-.344200E+03  mag=    20.0000
       N       E                     dE             d eps       ncg     rms          ort
SDA:   1    -0.344189103068E+03    0.10860E-01    0.00000E+00  7488   0.359E+00 0.000E+00
CGA:   2    -0.344196543045E+03   -0.74400E-02   -0.75019E-02  7488   0.297E-01-0.172E-02
CGA:   3    -0.344197825718E+03   -0.12827E-02   -0.12826E-02  7488   0.236E-01-0.134E-04
CGA:   4    -0.344199805413E+03   -0.19797E-02   -0.19805E-02  7488   0.353E-01-0.185E-04
CGA:   5    -0.344201230755E+03   -0.14253E-02   -0.14250E-02  7488   0.117E-01-0.114E-04
CGA:   6    -0.344201781167E+03   -0.55041E-03   -0.55037E-03  7488   0.583E-02 0.368E-04
CGA:   7    -0.344202174619E+03   -0.39345E-03   -0.39255E-03  7488   0.266E-02 0.426E-04
CGA:   8    -0.344202343662E+03   -0.16904E-03   -0.16872E-03  7488   0.178E-02 0.206E-04
CGA:   9    -0.344202432550E+03   -0.88888E-04   -0.88879E-04  7488   0.795E-03 0.636E-05
CGA:  10    -0.344202457620E+03   -0.25070E-04   -0.25046E-04  7488   0.287E-03-0.166E-05
CGA:  11    -0.344202475721E+03   -0.18101E-04   -0.18215E-04  7488   0.308E-03-0.695E-05
CGA:  12    -0.344202495357E+03   -0.19636E-04   -0.19832E-04  7488   0.148E-03-0.110E-04
CGA:  13    -0.344202499865E+03   -0.45085E-05   -0.44709E-05  7488   0.436E-04-0.212E-05
   2 F= -.34420250E+03 E0= -.34418627E+03  d E =-.252928E-02  mag=    20.0000
       N       E                     dE             d eps       ncg     rms          ort
SDA:   1    -0.344034144144E+03    0.16835E+00    0.00000E+00  7488   0.715E+00 0.000E+00
CGA:   2    -0.344067604395E+03   -0.33460E-01   -0.33435E-01  7488   0.864E+00-0.258E-02
CGA:   3    -0.344137844002E+03   -0.70240E-01   -0.70362E-01  7488   0.116E+01-0.347E-02
CGA:   4    -0.344181392264E+03   -0.43548E-01   -0.43490E-01  7488   0.177E+00-0.385E-03
CGA:   5    -0.344192609801E+03   -0.11218E-01   -0.11224E-01  7488   0.235E+00-0.341E-03
CGA:   6    -0.344207008954E+03   -0.14399E-01   -0.14394E-01  7488   0.829E-01 0.369E-03
CGA:   7    -0.344209717237E+03   -0.27083E-02   -0.27135E-02  7488   0.178E-01-0.148E-04
CGA:   8    -0.344211312983E+03   -0.15957E-02   -0.15965E-02  7488   0.216E-01-0.189E-04
CGA:   9    -0.344212497259E+03   -0.11843E-02   -0.11843E-02  7488   0.582E-02-0.462E-06
CGA:  10    -0.344212680278E+03   -0.18302E-03   -0.18315E-03  7488   0.309E-02-0.366E-05
CGA:  11    -0.344212915543E+03   -0.23526E-03   -0.23531E-03  7488   0.414E-02-0.158E-05
CGA:  12    -0.344213154453E+03   -0.23891E-03   -0.23889E-03  7488   0.112E-02 0.294E-05
CGA:  13    -0.344213199530E+03   -0.45077E-04   -0.45089E-04  7488   0.545E-03 0.771E-06
CGA:  14    -0.344213239719E+03   -0.40189E-04   -0.40195E-04  7488   0.823E-03-0.310E-06
CGA:  15    -0.344213294341E+03   -0.54622E-04   -0.54633E-04  7488   0.254E-03-0.827E-06
CGA:  16    -0.344213304362E+03   -0.10021E-04   -0.10019E-04  7488   0.200E-03-0.353E-06
CGA:  17    -0.344213316625E+03   -0.12263E-04   -0.12266E-04  7488   0.164E-03-0.463E-06
CGA:  18    -0.344213327182E+03   -0.10557E-04   -0.10565E-04  7488   0.146E-03-0.831E-06
CGA:  19    -0.344213341059E+03   -0.13877E-04   -0.13915E-04  7488   0.109E-03-0.102E-05
CGA:  20    -0.344213344969E+03   -0.39097E-05   -0.39083E-05  7488   0.455E-04-0.137E-06
   3 F= -.34421334E+03 E0= -.34419712E+03  d E =-.108451E-01  mag=    20.0000
       N       E                     dE             d eps       ncg     rms          ort
SDA:   1    -0.340019739909E+03    0.41936E+01    0.00000E+00  7488   0.149E+02 0.000E+00
CGA:   2    -0.340762330314E+03   -0.74259E+00   -0.73932E+00  7488   0.238E+02-0.177E+00
CGA:   3    -0.342929152923E+03   -0.21668E+01   -0.21796E+01  7488   0.176E+02-0.753E+00
CGA:   4    -0.343471822037E+03   -0.54267E+00   -0.48210E+00  7488   0.535E+01 0.137E+01
CGA:   5    -0.343685589740E+03   -0.21377E+00   -0.20503E+00  7488   0.427E+01 0.228E-01
CGA:   6    -0.343922740201E+03   -0.23715E+00   -0.23715E+00  7488   0.665E+01-0.103E-01
CGA:   7    -0.344113347539E+03   -0.19061E+00   -0.19193E+00  7488   0.117E+01-0.176E-01
CGA:   8    -0.344149141769E+03   -0.35794E-01   -0.36218E-01  7488   0.551E+00-0.458E-02
CGA:   9    -0.344168960105E+03   -0.19818E-01   -0.19938E-01  7488   0.598E+00 0.361E-03
CGA:  10    -0.344203671689E+03   -0.34712E-01   -0.34589E-01  7488   0.263E+00 0.126E-01
CGA:  11    -0.344212347362E+03   -0.86757E-02   -0.87614E-02  7488   0.147E+00-0.358E-03
CGA:  12    -0.344217216106E+03   -0.48687E-02   -0.48666E-02  7488   0.866E-01-0.878E-05
CGA:  13    -0.344222754011E+03   -0.55379E-02   -0.55156E-02  7488   0.608E-01 0.112E-02
CGA:  14    -0.344225163822E+03   -0.24098E-02   -0.24254E-02  7488   0.583E-01 0.274E-03
CGA:  15    -0.344228071582E+03   -0.29078E-02   -0.29075E-02  7488   0.322E-01-0.164E-03
CGA:  16    -0.344229235811E+03   -0.11642E-02   -0.11702E-02  7488   0.850E-02 0.234E-04
CGA:  17    -0.344229663330E+03   -0.42752E-03   -0.42748E-03  7488   0.123E-01 0.257E-04
CGA:  18    -0.344230558698E+03   -0.89537E-03   -0.89716E-03  7488   0.132E-01-0.734E-04
CGA:  19    -0.344231040570E+03   -0.48187E-03   -0.48497E-03  7488   0.337E-02 0.294E-04
CGA:  20    -0.344231163433E+03   -0.12286E-03   -0.12302E-03  7488   0.220E-02 0.196E-05
CGA:  21    -0.344231414949E+03   -0.25152E-03   -0.25137E-03  7488   0.503E-02-0.175E-05
CGA:  22    -0.344231577216E+03   -0.16227E-03   -0.16303E-03  7488   0.184E-02-0.349E-05
CGA:  23    -0.344231747240E+03   -0.17002E-03   -0.16975E-03  7488   0.143E-02 0.586E-05
CGA:  24    -0.344231794568E+03   -0.47328E-04   -0.47338E-04  7488   0.717E-03-0.300E-06
CGA:  25    -0.344231838797E+03   -0.44230E-04   -0.44210E-04  7488   0.114E-02 0.111E-05
CGA:  26    -0.344231942132E+03   -0.10333E-03   -0.10304E-03  7488   0.737E-03 0.695E-05
CGA:  27    -0.344231968474E+03   -0.26342E-04   -0.26346E-04  7488   0.306E-03 0.284E-06
CGA:  28    -0.344231984296E+03   -0.15822E-04   -0.15823E-04  7488   0.392E-03-0.313E-06
CGA:  29    -0.344232022292E+03   -0.37997E-04   -0.37980E-04  7488   0.532E-03-0.207E-06
CGA:  30    -0.344232041931E+03   -0.19639E-04   -0.19618E-04  7488   0.221E-03-0.590E-06
CGA:  31    -0.344232059043E+03   -0.17111E-04   -0.17112E-04  7488   0.229E-03-0.344E-06
SDA:  32    -0.344232068822E+03   -0.97797E-05   -0.97773E-05  7488   0.163E-03-0.744E-06
   4 F= -.34423207E+03 E0= -.34421593E+03  d E =-.187239E-01  mag=    20.0000
       N       E                     dE             d eps       ncg     rms          ort
SDA:   1    -0.343768453461E+03    0.46361E+00    0.00000E+00  7488   0.149E+01 0.000E+00
CGA:   2    -0.343876121351E+03   -0.10767E+00   -0.10770E+00  7488   0.336E+01-0.728E-03
CGA:   3    -0.344085317725E+03   -0.20920E+00   -0.20912E+00  7488   0.168E+01 0.656E-02
CGA:   4    -0.344144320866E+03   -0.59003E-01   -0.58347E-01  7488   0.493E+00 0.340E-02
CGA:   5    -0.344190977063E+03   -0.46656E-01   -0.46619E-01  7488   0.695E+00 0.906E-03
CGA:   6    -0.344215873148E+03   -0.24896E-01   -0.24894E-01  7488   0.131E+00 0.159E-03
CGA:   7    -0.344222756590E+03   -0.68834E-02   -0.68775E-02  7488   0.694E-01-0.909E-03
CGA:   8    -0.344228614737E+03   -0.58581E-02   -0.58350E-02  7488   0.319E-01 0.668E-03
CGA:   9    -0.344230414128E+03   -0.17994E-02   -0.17993E-02  7488   0.233E-01-0.585E-04
CGA:  10    -0.344231385389E+03   -0.97126E-03   -0.97132E-03  7488   0.125E-01-0.588E-05
CGA:  11    -0.344231935935E+03   -0.55055E-03   -0.55100E-03  7488   0.619E-02 0.901E-05
CGA:  12    -0.344232337015E+03   -0.40108E-03   -0.40108E-03  7488   0.709E-02 0.228E-06
CGA:  13    -0.344232691341E+03   -0.35433E-03   -0.35431E-03  7488   0.233E-02-0.408E-05
CGA:  14    -0.344232783557E+03   -0.92215E-04   -0.92243E-04  7488   0.895E-03-0.168E-05
CGA:  15    -0.344232895344E+03   -0.11179E-03   -0.11183E-03  7488   0.136E-02-0.103E-05
CGA:  16    -0.344232967245E+03   -0.71902E-04   -0.71902E-04  7488   0.300E-03-0.104E-05
CGA:  17    -0.344232987097E+03   -0.19852E-04   -0.19850E-04  7488   0.409E-03-0.134E-06
CGA:  18    -0.344233012288E+03   -0.25192E-04   -0.25187E-04  7488   0.254E-03 0.103E-05
CGA:  19    -0.344233028515E+03   -0.16227E-04   -0.16219E-04  7488   0.267E-03 0.121E-05
CGA:  20    -0.344233044094E+03   -0.15579E-04   -0.15579E-04  7488   0.197E-03 0.416E-06
CGA:  21    -0.344233050577E+03   -0.64840E-05   -0.64920E-05  7488   0.660E-04-0.629E-07
   5 F= -.34423305E+03 E0= -.34421686E+03  d E =-.981755E-03  mag=    20.0000
       N       E                     dE             d eps       ncg     rms          ort
SDA:   1    -0.343964221895E+03    0.26882E+00    0.00000E+00  7488   0.110E+01 0.000E+00
CGA:   2    -0.344027901799E+03   -0.63680E-01   -0.63542E-01  7488   0.116E+01-0.142E-01
CGA:   3    -0.344145932777E+03   -0.11803E+00   -0.11819E+00  7488   0.127E+01-0.356E-02
CGA:   4    -0.344186262187E+03   -0.40329E-01   -0.41828E-01  7488   0.338E+00-0.195E-01
CGA:   5    -0.344203708562E+03   -0.17446E-01   -0.17450E-01  7488   0.299E+00 0.191E-03
CGA:   6    -0.344222409723E+03   -0.18701E-01   -0.18701E-01  7488   0.215E+00 0.874E-04
CGA:   7    -0.344228923435E+03   -0.65137E-02   -0.64860E-02  7488   0.370E-01 0.481E-03
CGA:   8    -0.344231059144E+03   -0.21357E-02   -0.21358E-02  7488   0.284E-01 0.170E-04
CGA:   9    -0.344233471386E+03   -0.24122E-02   -0.24123E-02  7488   0.158E-01 0.152E-06
CGA:  10    -0.344234060575E+03   -0.58919E-03   -0.58930E-03  7488   0.493E-02-0.106E-05
CGA:  11    -0.344234330415E+03   -0.26984E-03   -0.26982E-03  7488   0.606E-02-0.123E-05
CGA:  12    -0.344234675805E+03   -0.34539E-03   -0.34539E-03  7488   0.287E-02-0.164E-05
CGA:  13    -0.344234820447E+03   -0.14464E-03   -0.14461E-03  7488   0.172E-02-0.334E-05
CGA:  14    -0.344234903232E+03   -0.82785E-04   -0.82758E-04  7488   0.867E-03-0.243E-05
CGA:  15    -0.344234942984E+03   -0.39751E-04   -0.39756E-04  7488   0.407E-03-0.123E-07
CGA:  16    -0.344234992408E+03   -0.49424E-04   -0.49460E-04  7488   0.641E-03-0.660E-06
CGA:  17    -0.344235012922E+03   -0.20514E-04   -0.20512E-04  7488   0.178E-03-0.299E-06
CGA:  18    -0.344235020548E+03   -0.76261E-05   -0.76295E-05  7488   0.103E-03 0.795E-07
CGA:  19    -0.344235030862E+03   -0.10314E-04   -0.10267E-04  7488   0.168E-03 0.106E-05
CGA:  20    -0.344235042075E+03   -0.11213E-04   -0.11208E-04  7488   0.684E-04 0.844E-06
CGA:  21    -0.344235044474E+03   -0.23992E-05   -0.24014E-05  7488   0.346E-04-0.617E-08
   6 F= -.34423504E+03 E0= -.34421885E+03  d E =-.199390E-02  mag=    20.0000
       N       E                     dE             d eps       ncg     rms          ort
SDA:   1    -0.339047312649E+03    0.51877E+01    0.00000E+00  7488   0.161E+02 0.000E+00
CGA:   2    -0.340256654372E+03   -0.12093E+01   -0.12971E+01  7488   0.447E+02-0.342E+01
CGA:   3    -0.342269400606E+03   -0.20127E+01   -0.20070E+01  7488   0.379E+02-0.390E+00
CGA:   4    -0.343087752789E+03   -0.81835E+00   -0.74796E+00  7488   0.125E+02 0.242E+01
CGA:   5    -0.343394344715E+03   -0.30659E+00   -0.31276E+00  7488   0.540E+01-0.220E+00
CGA:   6    -0.343646230785E+03   -0.25189E+00   -0.25268E+00  7488   0.984E+01 0.248E-01
CGA:   7    -0.344000844256E+03   -0.35461E+00   -0.34638E+00  7488   0.351E+01 0.608E-01
CGA:   8    -0.344074889670E+03   -0.74045E-01   -0.71847E-01  7488   0.118E+01 0.780E-01
CGA:   9    -0.344107950714E+03   -0.33061E-01   -0.34471E-01  7488   0.675E+00-0.216E-01
CGA:  10    -0.344145193648E+03   -0.37243E-01   -0.37174E-01  7488   0.124E+01 0.141E-01
CGA:  11    -0.344185435098E+03   -0.40241E-01   -0.40056E-01  7488   0.267E+00 0.191E-02
CGA:  12    -0.344193891441E+03   -0.84563E-02   -0.84944E-02  7488   0.171E+00-0.275E-03
CGA:  13    -0.344200410571E+03   -0.65191E-02   -0.66121E-02  7488   0.133E+00 0.137E-02
CGA:  14    -0.344207864520E+03   -0.74539E-02   -0.74474E-02  7488   0.107E+00 0.812E-03
CGA:  15    -0.344211836161E+03   -0.39716E-02   -0.39657E-02  7488   0.709E-01-0.823E-04
CGA:  16    -0.344214738184E+03   -0.29020E-02   -0.29235E-02  7488   0.354E-01 0.649E-03
CGA:  17    -0.344215995946E+03   -0.12578E-02   -0.12661E-02  7488   0.164E-01 0.570E-04
CGA:  18    -0.344216651919E+03   -0.65597E-03   -0.65554E-03  7488   0.121E-01-0.126E-04
CGA:  19    -0.344217722998E+03   -0.10711E-02   -0.10640E-02  7488   0.187E-01 0.156E-03
CGA:  20    -0.344218340373E+03   -0.61738E-03   -0.62497E-03  7488   0.534E-02-0.362E-05
CGA:  21    -0.344218521398E+03   -0.18102E-03   -0.18107E-03  7488   0.168E-02-0.337E-05
CGA:  22    -0.344218705784E+03   -0.18439E-03   -0.18423E-03  7488   0.448E-02-0.920E-07
CGA:  23    -0.344218929645E+03   -0.22386E-03   -0.22405E-03  7488   0.192E-02 0.482E-04
CGA:  24    -0.344219006224E+03   -0.76579E-04   -0.76664E-04  7488   0.778E-03 0.186E-05
CGA:  25    -0.344219050663E+03   -0.44439E-04   -0.44421E-04  7488   0.833E-03 0.161E-05
CGA:  26    -0.344219090228E+03   -0.39565E-04   -0.39592E-04  7488   0.596E-03 0.384E-05
CGA:  27    -0.344219128558E+03   -0.38330E-04   -0.38262E-04  7488   0.463E-03 0.431E-05
CGA:  28    -0.344219156125E+03   -0.27567E-04   -0.27557E-04  7488   0.249E-03 0.897E-06
CGA:  29    -0.344219163999E+03   -0.78742E-05   -0.78949E-05  7488   0.907E-04 0.599E-07
   7 F= -.34421916E+03 E0= -.34420295E+03  d E =0.158805E-01  mag=    20.0000
       N       E                     dE             d eps       ncg     rms          ort
SDA:   1    -0.338059579586E+03    0.61596E+01    0.00000E+00  7488   0.348E+02 0.000E+00
CGA:   2    -0.339277687913E+03   -0.12181E+01   -0.13079E+01  7488   0.238E+02 0.644E+00
CGA:   3    -0.341092206538E+03   -0.18145E+01   -0.18459E+01  7488   0.426E+02-0.132E+01
CGA:   4    -0.342798968738E+03   -0.17068E+01   -0.16224E+01  7488   0.130E+02-0.109E+01
CGA:   5    -0.343170508793E+03   -0.37154E+00   -0.36147E+00  7488   0.814E+01 0.222E+00
CGA:   6    -0.343609980462E+03   -0.43947E+00   -0.43955E+00  7488   0.970E+01-0.388E-01
CGA:   7    -0.343890402495E+03   -0.28042E+00   -0.27220E+00  7488   0.324E+01 0.128E+00
CGA:   8    -0.344001280899E+03   -0.11088E+00   -0.11116E+00  7488   0.144E+01-0.631E-03
CGA:   9    -0.344054415857E+03   -0.53135E-01   -0.53581E-01  7488   0.148E+01 0.581E-02
CGA:  10    -0.344101914513E+03   -0.47499E-01   -0.48096E-01  7488   0.512E+00 0.227E-03
CGA:  11    -0.344126559632E+03   -0.24645E-01   -0.24646E-01  7488   0.409E+00 0.149E-02
CGA:  12    -0.344142637290E+03   -0.16078E-01   -0.16164E-01  7488   0.425E+00 0.273E-02
CGA:  13    -0.344157520300E+03   -0.14883E-01   -0.15056E-01  7488   0.100E+00 0.149E-02
CGA:  14    -0.344162369376E+03   -0.48491E-02   -0.48487E-02  7488   0.968E-01 0.258E-03
CGA:  15    -0.344167237503E+03   -0.48681E-02   -0.48733E-02  7488   0.138E+00-0.105E-02
CGA:  16    -0.344172711554E+03   -0.54741E-02   -0.55480E-02  7488   0.378E-01 0.364E-02
CGA:  17    -0.344173753121E+03   -0.10416E-02   -0.10658E-02  7488   0.168E-01-0.234E-03
CGA:  18    -0.344174596397E+03   -0.84328E-03   -0.84371E-03  7488   0.216E-01-0.566E-04
CGA:  19    -0.344175729510E+03   -0.11331E-02   -0.11339E-02  7488   0.146E-01-0.810E-04
CGA:  20    -0.344176252649E+03   -0.52314E-03   -0.52937E-03  7488   0.752E-02 0.138E-03
CGA:  21    -0.344176602334E+03   -0.34969E-03   -0.34969E-03  7488   0.678E-02 0.145E-04
CGA:  22    -0.344176851168E+03   -0.24883E-03   -0.24883E-03  7488   0.258E-02-0.308E-05
CGA:  23    -0.344176976485E+03   -0.12532E-03   -0.12523E-03  7488   0.223E-02 0.181E-04
CGA:  24    -0.344177139963E+03   -0.16348E-03   -0.16318E-03  7488   0.424E-02 0.718E-05
CGA:  25    -0.344177291864E+03   -0.15190E-03   -0.15214E-03  7488   0.984E-03 0.135E-05
CGA:  26    -0.344177334705E+03   -0.42841E-04   -0.42857E-04  7488   0.591E-03 0.142E-05
CGA:  27    -0.344177366154E+03   -0.31449E-04   -0.31455E-04  7488   0.884E-03-0.177E-05
CGA:  28    -0.344177411275E+03   -0.45121E-04   -0.45123E-04  7488   0.427E-03-0.210E-05
CGA:  29    -0.344177430075E+03   -0.18799E-04   -0.18800E-04  7488   0.290E-03-0.477E-06
CGA:  30    -0.344177442852E+03   -0.12777E-04   -0.12778E-04  7488   0.220E-03-0.332E-06
CGA:  31    -0.344177451980E+03   -0.91281E-05   -0.91318E-05  7488   0.120E-03 0.109E-06
   8 F= -.34417745E+03 E0= -.34416061E+03  d E =0.417120E-01  mag=    20.0000
       N       E                     dE             d eps       ncg     rms          ort
SDA:   1    -0.338762686223E+03    0.54148E+01    0.00000E+00  7488   0.178E+02 0.000E+00
CGA:   2    -0.339932440119E+03   -0.11698E+01   -0.11975E+01  7488   0.434E+02-0.104E+01
CGA:   3    -0.342551799413E+03   -0.26194E+01   -0.26375E+01  7488   0.193E+02-0.130E+01
CGA:   4    -0.343098807923E+03   -0.54701E+00   -0.53858E+00  7488   0.710E+01 0.964E-01
CGA:   5    -0.343560225608E+03   -0.46142E+00   -0.46224E+00  7488   0.108E+02-0.462E-01
CGA:   6    -0.343955688182E+03   -0.39546E+00   -0.38766E+00  7488   0.484E+01-0.890E-01
CGA:   7    -0.344062466762E+03   -0.10678E+00   -0.10640E+00  7488   0.961E+00 0.123E-01
CGA:   8    -0.344123805169E+03   -0.61338E-01   -0.60607E-01  7488   0.111E+01 0.332E-01
CGA:   9    -0.344175158808E+03   -0.51354E-01   -0.51295E-01  7488   0.781E+00-0.109E-01
CGA:  10    -0.344195689606E+03   -0.20531E-01   -0.20833E-01  7488   0.284E+00-0.307E-02
CGA:  11    -0.344209991674E+03   -0.14302E-01   -0.14267E-01  7488   0.164E+00 0.473E-02
CGA:  12    -0.344217498855E+03   -0.75072E-02   -0.75081E-02  7488   0.125E+00 0.382E-03
CGA:  13    -0.344222193619E+03   -0.46948E-02   -0.47326E-02  7488   0.894E-01 0.130E-02
CGA:  14    -0.344227170952E+03   -0.49773E-02   -0.49683E-02  7488   0.699E-01 0.662E-03
CGA:  15    -0.344229954530E+03   -0.27836E-02   -0.27847E-02  7488   0.186E-01 0.743E-04
CGA:  16    -0.344230636998E+03   -0.68247E-03   -0.68414E-03  7488   0.117E-01 0.432E-04
CGA:  17    -0.344231729399E+03   -0.10924E-02   -0.10943E-02  7488   0.271E-01-0.545E-04
CGA:  18    -0.344232645314E+03   -0.91592E-03   -0.92401E-03  7488   0.369E-02 0.698E-04
CGA:  19    -0.344232813456E+03   -0.16814E-03   -0.16817E-03  7488   0.264E-02 0.571E-05
CGA:  20    -0.344232998427E+03   -0.18497E-03   -0.18515E-03  7488   0.487E-02-0.976E-05
CGA:  21    -0.344233270635E+03   -0.27221E-03   -0.27148E-03  7488   0.307E-02 0.553E-04
CGA:  22    -0.344233373401E+03   -0.10277E-03   -0.10282E-03  7488   0.742E-03-0.131E-05
CGA:  23    -0.344233416343E+03   -0.42942E-04   -0.42925E-04  7488   0.970E-03-0.733E-07
CGA:  24    -0.344233500394E+03   -0.84050E-04   -0.83633E-04  7488   0.129E-02 0.950E-05
CGA:  25    -0.344233539369E+03   -0.38976E-04   -0.38997E-04  7488   0.275E-03-0.654E-06
CGA:  26    -0.344233551146E+03   -0.11777E-04   -0.11778E-04  7488   0.194E-03-0.900E-06
CGA:  27    -0.344233574193E+03   -0.23047E-04   -0.22898E-04  7488   0.288E-03 0.160E-05
CGA:  28    -0.344233584853E+03   -0.10660E-04   -0.10672E-04  7488   0.114E-03 0.163E-06
CGA:  29    -0.344233588858E+03   -0.40048E-05   -0.40101E-05  7488   0.553E-04-0.387E-06
   9 F= -.34423359E+03 E0= -.34421699E+03  d E =-.561369E-01  mag=    20.0000
       N       E                     dE             d eps       ncg     rms          ort
SDA:   1    -0.342256549085E+03    0.19770E+01    0.00000E+00  7488   0.122E+02 0.000E+00
CGA:   2    -0.342691575178E+03   -0.43503E+00   -0.43135E+00  7488   0.691E+01-0.517E-01
CGA:   3    -0.343238512907E+03   -0.54694E+00   -0.54038E+00  7488   0.116E+02 0.196E+00
CGA:   4    -0.343827087397E+03   -0.58857E+00   -0.58871E+00  7488   0.328E+01 0.203E-01
CGA:   5    -0.343957041555E+03   -0.12995E+00   -0.12678E+00  7488   0.206E+01-0.254E-01
CGA:   6    -0.344105068972E+03   -0.14803E+00   -0.14884E+00  7488   0.224E+01-0.309E-01
CGA:   7    -0.344191563087E+03   -0.86494E-01   -0.87476E-01  7488   0.244E+00 0.133E-01
CGA:   8    -0.344204793303E+03   -0.13230E-01   -0.13233E-01  7488   0.277E+00-0.898E-03
CGA:   9    -0.344220691260E+03   -0.15898E-01   -0.15898E-01  7488   0.218E+00 0.599E-04
CGA:  10    -0.344227917197E+03   -0.72259E-02   -0.72714E-02  7488   0.374E-01-0.123E-03
CGA:  11    -0.344229860230E+03   -0.19430E-02   -0.19430E-02  7488   0.414E-01 0.134E-04
CGA:  12    -0.344232831265E+03   -0.29710E-02   -0.29696E-02  7488   0.375E-01 0.570E-04
CGA:  13    -0.344234323607E+03   -0.14923E-02   -0.14944E-02  7488   0.782E-02 0.218E-04
CGA:  14    -0.344234814328E+03   -0.49072E-03   -0.49074E-03  7488   0.634E-02-0.297E-05
CGA:  15    -0.344235220347E+03   -0.40602E-03   -0.40593E-03  7488   0.569E-02 0.512E-05
CGA:  16    -0.344235456839E+03   -0.23649E-03   -0.23663E-03  7488   0.369E-02 0.379E-05
CGA:  17    -0.344235685570E+03   -0.22873E-03   -0.22862E-03  7488   0.175E-02 0.683E-05
CGA:  18    -0.344235748903E+03   -0.63332E-04   -0.63388E-04  7488   0.853E-03 0.968E-06
CGA:  19    -0.344235808694E+03   -0.59791E-04   -0.59731E-04  7488   0.119E-02 0.247E-05
CGA:  20    -0.344235921094E+03   -0.11240E-03   -0.11227E-03  7488   0.525E-03 0.266E-05
CGA:  21    -0.344235942852E+03   -0.21758E-04   -0.21781E-04  7488   0.218E-03 0.123E-05
CGA:  22    -0.344235963987E+03   -0.21135E-04   -0.20989E-04  7488   0.451E-03 0.318E-05
CGA:  23    -0.344235990526E+03   -0.26539E-04   -0.26534E-04  7488   0.228E-03 0.325E-05
CGA:  24    -0.344235998891E+03   -0.83654E-05   -0.83900E-05  7488   0.766E-04 0.906E-06
  10 F= -.34423600E+03 E0= -.34421988E+03  d E =-.241003E-02  mag=    20.0000
       N       E                     dE             d eps       ncg     rms          ort
SDA:   1    -0.343545120705E+03    0.69087E+00    0.00000E+00  7488   0.320E+01 0.000E+00
CGA:   2    -0.343682262037E+03   -0.13714E+00   -0.13835E+00  7488   0.301E+01 0.202E-01
CGA:   3    -0.343923875282E+03   -0.24161E+00   -0.24283E+00  7488   0.424E+01-0.409E-01
CGA:   4    -0.344101418944E+03   -0.17754E+00   -0.17659E+00  7488   0.106E+01-0.705E-02
CGA:   5    -0.344142436103E+03   -0.41017E-01   -0.40866E-01  7488   0.774E+00-0.111E-03
CGA:   6    -0.344209504969E+03   -0.67069E-01   -0.67163E-01  7488   0.425E+00-0.260E-02
CGA:   7    -0.344225101552E+03   -0.15597E-01   -0.15499E-01  7488   0.785E-01 0.330E-03
CGA:   8    -0.344231005722E+03   -0.59042E-02   -0.59002E-02  7488   0.100E+00 0.164E-03
CGA:   9    -0.344236358679E+03   -0.53530E-02   -0.53533E-02  7488   0.440E-01 0.539E-04
CGA:  10    -0.344237708212E+03   -0.13495E-02   -0.13516E-02  7488   0.150E-01-0.225E-04
CGA:  11    -0.344238618133E+03   -0.90992E-03   -0.90985E-03  7488   0.144E-01 0.984E-05
CGA:  12    -0.344239477629E+03   -0.85950E-03   -0.85923E-03  7488   0.101E-01 0.414E-04
CGA:  13    -0.344239912077E+03   -0.43445E-03   -0.43468E-03  7488   0.394E-02 0.704E-05
CGA:  14    -0.344240177346E+03   -0.26527E-03   -0.26503E-03  7488   0.173E-02 0.136E-04
CGA:  15    -0.344240263491E+03   -0.86145E-04   -0.86160E-04  7488   0.140E-02 0.128E-05
CGA:  16    -0.344240362561E+03   -0.99070E-04   -0.99009E-04  7488   0.202E-02 0.271E-05
CGA:  17    -0.344240445461E+03   -0.82900E-04   -0.82907E-04  7488   0.299E-03 0.552E-07
CGA:  18    -0.344240459814E+03   -0.14353E-04   -0.14350E-04  7488   0.317E-03-0.896E-06
CGA:  19    -0.344240496484E+03   -0.36670E-04   -0.36621E-04  7488   0.460E-03 0.411E-06
CGA:  20    -0.344240515837E+03   -0.19353E-04   -0.19362E-04  7488   0.966E-04 0.140E-06
CGA:  21    -0.344240521613E+03   -0.57758E-05   -0.57768E-05  7488   0.138E-03-0.704E-06
  11 F= -.34424052E+03 E0= -.34422414E+03  d E =-.452272E-02  mag=    20.0000
       N       E                     dE             d eps       ncg     rms          ort
SDA:   1    -0.344190358362E+03    0.50157E-01    0.00000E+00  7488   0.405E+00 0.000E+00
CGA:   2    -0.344200687938E+03   -0.10330E-01   -0.10424E-01  7488   0.172E+00-0.213E-02
CGA:   3    -0.344215139472E+03   -0.14452E-01   -0.14438E-01  7488   0.267E+00 0.417E-03
CGA:   4    -0.344231463402E+03   -0.16324E-01   -0.16331E-01  7488   0.854E-01-0.111E-02
CGA:   5    -0.344235760194E+03   -0.42968E-02   -0.42993E-02  7488   0.486E-01 0.150E-03
CGA:   6    -0.344238638630E+03   -0.28784E-02   -0.28783E-02  7488   0.332E-01 0.422E-04
CGA:   7    -0.344240114948E+03   -0.14763E-02   -0.14759E-02  7488   0.158E-01 0.382E-05
CGA:   8    -0.344240896231E+03   -0.78128E-03   -0.78128E-03  7488   0.852E-02 0.335E-05
CGA:   9    -0.344241252675E+03   -0.35644E-03   -0.35632E-03  7488   0.370E-02 0.986E-06
CGA:  10    -0.344241387362E+03   -0.13469E-03   -0.13469E-03  7488   0.186E-02-0.252E-06
CGA:  11    -0.344241582476E+03   -0.19511E-03   -0.19512E-03  7488   0.109E-02-0.105E-06
CGA:  12    -0.344241624773E+03   -0.42298E-04   -0.42318E-04  7488   0.332E-03 0.735E-06
CGA:  13    -0.344241652255E+03   -0.27481E-04   -0.27448E-04  7488   0.655E-03 0.126E-05
CGA:  14    -0.344241682432E+03   -0.30177E-04   -0.30191E-04  7488   0.216E-03 0.102E-05
CGA:  15    -0.344241690360E+03   -0.79277E-05   -0.79309E-05  7488   0.729E-04 0.108E-06
  12 F= -.34424169E+03 E0= -.34422531E+03  d E =-.116875E-02  mag=    20.0000
       N       E                     dE             d eps       ncg     rms          ort
SDA:   1    -0.343390233660E+03    0.85145E+00    0.00000E+00  7488   0.310E+01 0.000E+00
CGA:   2    -0.343553338678E+03   -0.16311E+00   -0.16309E+00  7488   0.441E+01-0.539E-03
CGA:   3    -0.343971393648E+03   -0.41805E+00   -0.41879E+00  7488   0.417E+01-0.234E-01
CGA:   4    -0.344110975347E+03   -0.13958E+00   -0.13803E+00  7488   0.927E+00 0.275E-01
CGA:   5    -0.344146697199E+03   -0.35722E-01   -0.35467E-01  7488   0.755E+00 0.343E-03
CGA:   6    -0.344218394767E+03   -0.71698E-01   -0.71731E-01  7488   0.319E+00-0.844E-03
CGA:   7    -0.344229740052E+03   -0.11345E-01   -0.11364E-01  7488   0.723E-01-0.114E-03
CGA:   8    -0.344235788275E+03   -0.60482E-02   -0.60555E-02  7488   0.102E+00-0.221E-03
CGA:   9    -0.344240236801E+03   -0.44485E-02   -0.44640E-02  7488   0.411E-01 0.227E-03
CGA:  10    -0.344241611858E+03   -0.13751E-02   -0.13793E-02  7488   0.188E-01-0.264E-04
CGA:  11    -0.344242928789E+03   -0.13169E-02   -0.13151E-02  7488   0.105E-01 0.860E-04
CGA:  12    -0.344243362380E+03   -0.43359E-03   -0.43413E-03  7488   0.775E-02 0.330E-06
CGA:  13    -0.344244017247E+03   -0.65487E-03   -0.65539E-03  7488   0.438E-02-0.192E-04
CGA:  14    -0.344244187136E+03   -0.16989E-03   -0.17014E-03  7488   0.119E-02-0.485E-05
CGA:  15    -0.344244305557E+03   -0.11842E-03   -0.11841E-03  7488   0.199E-02-0.148E-05
CGA:  16    -0.344244435748E+03   -0.13019E-03   -0.13017E-03  7488   0.140E-02 0.297E-07
CGA:  17    -0.344244476276E+03   -0.40527E-04   -0.40559E-04  7488   0.348E-03-0.221E-05
CGA:  18    -0.344244504103E+03   -0.27827E-04   -0.27821E-04  7488   0.610E-03-0.886E-06
CGA:  19    -0.344244548033E+03   -0.43930E-04   -0.43881E-04  7488   0.502E-03 0.184E-05
CGA:  20    -0.344244570587E+03   -0.22554E-04   -0.22551E-04  7488   0.233E-03-0.531E-06
CGA:  21    -0.344244586430E+03   -0.15844E-04   -0.15834E-04  7488   0.155E-03 0.299E-06
CGA:  22    -0.344244596288E+03   -0.98578E-05   -0.98530E-05  7488   0.116E-03 0.528E-06
  13 F= -.34424460E+03 E0= -.34422829E+03  d E =-.290593E-02  mag=    20.0000
       N       E                     dE             d eps       ncg     rms          ort
SDA:   1    -0.342763246214E+03    0.14813E+01    0.00000E+00  7488   0.491E+01 0.000E+00
CGA:   2    -0.343074464729E+03   -0.31122E+00   -0.31089E+00  7488   0.106E+02 0.593E-01
CGA:   3    -0.343816965422E+03   -0.74250E+00   -0.74403E+00  7488   0.329E+01-0.112E+00
CGA:   4    -0.343983523281E+03   -0.16656E+00   -0.16685E+00  7488   0.193E+01 0.100E-01
CGA:   5    -0.344116040023E+03   -0.13252E+00   -0.13328E+00  7488   0.214E+01-0.558E-01
CGA:   6    -0.344186126085E+03   -0.70086E-01   -0.70902E-01  7488   0.674E+00-0.747E-02
CGA:   7    -0.344212981852E+03   -0.26856E-01   -0.26812E-01  7488   0.223E+00-0.646E-04
CGA:   8    -0.344229132738E+03   -0.16151E-01   -0.16102E-01  7488   0.159E+00 0.245E-02
CGA:   9    -0.344236007871E+03   -0.68751E-02   -0.68625E-02  7488   0.968E-01-0.355E-04
CGA:  10    -0.344240996898E+03   -0.49890E-02   -0.49939E-02  7488   0.652E-01 0.282E-03
CGA:  11    -0.344243671907E+03   -0.26750E-02   -0.26716E-02  7488   0.208E-01-0.775E-05
CGA:  12    -0.344244683913E+03   -0.10120E-02   -0.10128E-02  7488   0.216E-01 0.375E-04
CGA:  13    -0.344246360384E+03   -0.16765E-02   -0.16762E-02  7488   0.125E-01 0.711E-05
CGA:  14    -0.344246821427E+03   -0.46104E-03   -0.46246E-03  7488   0.299E-02-0.535E-05
CGA:  15    -0.344247020173E+03   -0.19875E-03   -0.19874E-03  7488   0.566E-02-0.151E-05
CGA:  16    -0.344247388115E+03   -0.36794E-03   -0.36764E-03  7488   0.301E-02 0.233E-04
CGA:  17    -0.344247515101E+03   -0.12699E-03   -0.12707E-03  7488   0.950E-03-0.109E-06
CGA:  18    -0.344247599504E+03   -0.84403E-04   -0.84282E-04  7488   0.153E-02 0.297E-05
CGA:  19    -0.344247669306E+03   -0.69802E-04   -0.69833E-04  7488   0.102E-02 0.142E-05
CGA:  20    -0.344247742988E+03   -0.73682E-04   -0.73604E-04  7488   0.111E-02 0.375E-05
CGA:  21    -0.344247794997E+03   -0.52009E-04   -0.52019E-04  7488   0.418E-03 0.307E-06
CGA:  22    -0.344247814642E+03   -0.19645E-04   -0.19652E-04  7488   0.330E-03 0.538E-08
CGA:  23    -0.344247845175E+03   -0.30533E-04   -0.30503E-04  7488   0.493E-03 0.448E-06
CGA:  24    -0.344247872945E+03   -0.27770E-04   -0.27772E-04  7488   0.196E-03 0.372E-06
CGA:  25    -0.344247878878E+03   -0.59339E-05   -0.59326E-05  7488   0.815E-04-0.208E-06
  14 F= -.34424788E+03 E0= -.34423155E+03  d E =-.328259E-02  mag=    20.0000
       N       E                     dE             d eps       ncg     rms          ort
SDA:   1    -0.343923825557E+03    0.32405E+00    0.00000E+00  7488   0.141E+01 0.000E+00
CGA:   2    -0.343984007776E+03   -0.60182E-01   -0.60509E-01  7488   0.171E+01 0.229E-02
CGA:   3    -0.344120677375E+03   -0.13667E+00   -0.13694E+00  7488   0.138E+01-0.102E-01
CGA:   4    -0.344181344716E+03   -0.60667E-01   -0.60531E-01  7488   0.446E+00-0.964E-03
CGA:   5    -0.344214198806E+03   -0.32854E-01   -0.32804E-01  7488   0.415E+00 0.248E-02
CGA:   6    -0.344239158106E+03   -0.24959E-01   -0.24959E-01  7488   0.159E+00-0.219E-03
CGA:   7    -0.344244020339E+03   -0.48622E-02   -0.48267E-02  7488   0.694E-01 0.608E-03
CGA:   8    -0.344247956128E+03   -0.39358E-02   -0.39360E-02  7488   0.418E-01 0.564E-04
CGA:   9    -0.344250510099E+03   -0.25540E-02   -0.25540E-02  7488   0.179E-01-0.168E-04
CGA:  10    -0.344251680060E+03   -0.11700E-02   -0.11696E-02  7488   0.140E-01 0.342E-04
CGA:  11    -0.344252211428E+03   -0.53137E-03   -0.53162E-03  7488   0.540E-02 0.265E-05
CGA:  12    -0.344252437224E+03   -0.22580E-03   -0.22598E-03  7488   0.402E-02 0.105E-06
CGA:  13    -0.344252865402E+03   -0.42818E-03   -0.42851E-03  7488   0.260E-02-0.682E-05
CGA:  14    -0.344252950972E+03   -0.85571E-04   -0.85603E-04  7488   0.751E-03-0.107E-05
CGA:  15    -0.344252991157E+03   -0.40184E-04   -0.40189E-04  7488   0.767E-03 0.760E-06
CGA:  16    -0.344253064570E+03   -0.73413E-04   -0.73358E-04  7488   0.681E-03 0.141E-05
CGA:  17    -0.344253085160E+03   -0.20590E-04   -0.20600E-04  7488   0.218E-03 0.376E-06
CGA:  18    -0.344253098509E+03   -0.13349E-04   -0.13348E-04  7488   0.184E-03 0.169E-06
CGA:  19    -0.344253110909E+03   -0.12400E-04   -0.12392E-04  7488   0.139E-03 0.813E-06
CGA:  20    -0.344253121234E+03   -0.10325E-04   -0.10314E-04  7488   0.146E-03 0.637E-06
CGA:  21    -0.344253127881E+03   -0.66472E-05   -0.66551E-05  7488   0.971E-04 0.419E-06
  15 F= -.34425313E+03 E0= -.34423685E+03  d E =-.524900E-02  mag=    20.0000
       N       E                     dE             d eps       ncg     rms          ort
SDA:   1    -0.344230951593E+03    0.22170E-01    0.00000E+00  7488   0.914E-01 0.000E+00
CGA:   2    -0.344235036528E+03   -0.40849E-02   -0.40804E-02  7488   0.107E+00-0.445E-04
CGA:   3    -0.344245399202E+03   -0.10363E-01   -0.10373E-01  7488   0.145E+00-0.211E-03
CGA:   4    -0.344249917709E+03   -0.45185E-02   -0.45257E-02  7488   0.215E-01-0.112E-03
CGA:   5    -0.344251480566E+03   -0.15629E-02   -0.15646E-02  7488   0.295E-01-0.879E-04
CGA:   6    -0.344253062274E+03   -0.15817E-02   -0.15815E-02  7488   0.114E-01-0.323E-04
CGA:   7    -0.344253463798E+03   -0.40152E-03   -0.40144E-03  7488   0.236E-02-0.584E-05
CGA:   8    -0.344253698532E+03   -0.23473E-03   -0.23475E-03  7488   0.270E-02-0.256E-06
CGA:   9    -0.344253802098E+03   -0.10357E-03   -0.10351E-03  7488   0.109E-02-0.118E-06
CGA:  10    -0.344253845677E+03   -0.43580E-04   -0.43556E-04  7488   0.674E-03-0.127E-05
CGA:  11    -0.344253884685E+03   -0.39007E-04   -0.39009E-04  7488   0.250E-03-0.378E-05
CGA:  12    -0.344253904767E+03   -0.20082E-04   -0.20188E-04  7488   0.293E-03-0.445E-05
CGA:  13    -0.344253921263E+03   -0.16496E-04   -0.16491E-04  7488   0.141E-03-0.334E-05
CGA:  14    -0.344253925756E+03   -0.44928E-05   -0.44762E-05  7488   0.388E-04-0.668E-06
  16 F= -.34425393E+03 E0= -.34423765E+03  d E =-.797874E-03  mag=    20.0000
       N       E                     dE             d eps       ncg     rms          ort
SDA:   1    -0.344197030689E+03    0.56891E-01    0.00000E+00  7488   0.525E+00 0.000E+00
CGA:   2    -0.344208777636E+03   -0.11747E-01   -0.11514E-01  7488   0.156E+00 0.749E-02
CGA:   3    -0.344228533447E+03   -0.19756E-01   -0.19767E-01  7488   0.374E+00-0.157E-03
CGA:   4    -0.344245757704E+03   -0.17224E-01   -0.17251E-01  7488   0.656E-01 0.398E-03
CGA:   5    -0.344248810467E+03   -0.30528E-02   -0.30462E-02  7488   0.517E-01-0.109E-03
CGA:   6    -0.344252138793E+03   -0.33283E-02   -0.33289E-02  7488   0.447E-01-0.666E-04
CGA:   7    -0.344253960394E+03   -0.18216E-02   -0.18227E-02  7488   0.128E-01-0.864E-05
CGA:   8    -0.344254367450E+03   -0.40706E-03   -0.40735E-03  7488   0.531E-02-0.796E-05
CGA:   9    -0.344254715142E+03   -0.34769E-03   -0.34778E-03  7488   0.455E-02-0.759E-05
CGA:  10    -0.344254969346E+03   -0.25420E-03   -0.25420E-03  7488   0.144E-02-0.202E-05
CGA:  11    -0.344255074801E+03   -0.10546E-03   -0.10547E-03  7488   0.983E-03-0.138E-05
CGA:  12    -0.344255119395E+03   -0.44594E-04   -0.44553E-04  7488   0.513E-03-0.308E-05
CGA:  13    -0.344255145931E+03   -0.26536E-04   -0.26516E-04  7488   0.562E-03-0.362E-05
CGA:  14    -0.344255179917E+03   -0.33985E-04   -0.34003E-04  7488   0.236E-03-0.466E-05
CGA:  15    -0.344255187332E+03   -0.74155E-05   -0.73990E-05  7488   0.730E-04-0.700E-06
  17 F= -.34425519E+03 E0= -.34423892E+03  d E =-.126158E-02  mag=    20.0000
       N       E                     dE             d eps       ncg     rms          ort
SDA:   1    -0.343568995370E+03    0.68618E+00    0.00000E+00  7488   0.226E+01 0.000E+00
CGA:   2    -0.343721449916E+03   -0.15245E+00   -0.15291E+00  7488   0.421E+01-0.292E-01
CGA:   3    -0.344058016479E+03   -0.33657E+00   -0.33597E+00  7488   0.302E+01 0.186E-01
CGA:   4    -0.344147977741E+03   -0.89961E-01   -0.90948E-01  7488   0.684E+00-0.835E-02
CGA:   5    -0.344187284042E+03   -0.39306E-01   -0.39306E-01  7488   0.878E+00 0.103E-03
CGA:   6    -0.344235092355E+03   -0.47808E-01   -0.47804E-01  7488   0.268E+00-0.535E-03
CGA:   7    -0.344246289970E+03   -0.11198E-01   -0.11208E-01  7488   0.830E-01 0.828E-04
CGA:   8    -0.344252911602E+03   -0.66216E-02   -0.66442E-02  7488   0.555E-01-0.767E-03
CGA:   9    -0.344255843158E+03   -0.29316E-02   -0.29324E-02  7488   0.298E-01 0.772E-04
CGA:  10    -0.344258009639E+03   -0.21665E-02   -0.21649E-02  7488   0.205E-01 0.807E-04
CGA:  11    -0.344258667206E+03   -0.65757E-03   -0.65749E-03  7488   0.635E-02-0.511E-07
CGA:  12    -0.344259107237E+03   -0.44003E-03   -0.44007E-03  7488   0.829E-02-0.326E-05
CGA:  13    -0.344259555842E+03   -0.44860E-03   -0.44862E-03  7488   0.499E-02-0.232E-05
CGA:  14    -0.344259724198E+03   -0.16836E-03   -0.16831E-03  7488   0.107E-02-0.313E-05
CGA:  15    -0.344259803703E+03   -0.79505E-04   -0.79501E-04  7488   0.129E-02-0.467E-06
CGA:  16    -0.344259930305E+03   -0.12660E-03   -0.12657E-03  7488   0.864E-03 0.238E-06
CGA:  17    -0.344259963014E+03   -0.32709E-04   -0.32705E-04  7488   0.356E-03-0.387E-06
CGA:  18    -0.344259987260E+03   -0.24246E-04   -0.24244E-04  7488   0.519E-03-0.230E-06
CGA:  19    -0.344260012787E+03   -0.25527E-04   -0.25537E-04  7488   0.269E-03 0.531E-06
CGA:  20    -0.344260035740E+03   -0.22952E-04   -0.22894E-04  7488   0.402E-03 0.185E-05
CGA:  21    -0.344260052452E+03   -0.16712E-04   -0.16740E-04  7488   0.991E-04 0.101E-05
CGA:  22    -0.344260058322E+03   -0.58702E-05   -0.58699E-05  7488   0.863E-04 0.258E-06
CGA:  23    -0.344260069728E+03   -0.11406E-04   -0.11299E-04  7488   0.116E-03 0.130E-05
CGA:  24    -0.344260073539E+03   -0.38113E-05   -0.38256E-05  7488   0.356E-04 0.369E-06
  18 F= -.34426007E+03 E0= -.34424385E+03  d E =-.488621E-02  mag=    20.0000
       N       E                     dE             d eps       ncg     rms          ort
SDA:   1    -0.343447304882E+03    0.81276E+00    0.00000E+00  7488   0.232E+01 0.000E+00
CGA:   2    -0.343704668388E+03   -0.25736E+00   -0.25677E+00  7488   0.745E+01 0.107E-01
CGA:   3    -0.344038015806E+03   -0.33335E+00   -0.33118E+00  7488   0.214E+01-0.354E-02
CGA:   4    -0.344126486668E+03   -0.88471E-01   -0.89054E-01  7488   0.847E+00 0.160E-02
CGA:   5    -0.344211301366E+03   -0.84815E-01   -0.84869E-01  7488   0.917E+00-0.116E-02
CGA:   6    -0.344243254908E+03   -0.31954E-01   -0.31867E-01  7488   0.169E+00 0.988E-03
CGA:   7    -0.344249430215E+03   -0.61753E-02   -0.61664E-02  7488   0.109E+00 0.745E-04
CGA:   8    -0.344258235723E+03   -0.88055E-02   -0.88046E-02  7488   0.102E+00 0.579E-04
CGA:   9    -0.344261842278E+03   -0.36066E-02   -0.36056E-02  7488   0.248E-01 0.412E-04
CGA:  10    -0.344262906674E+03   -0.10644E-02   -0.10646E-02  7488   0.165E-01 0.355E-05
CGA:  11    -0.344264607853E+03   -0.17012E-02   -0.17002E-02  7488   0.127E-01 0.207E-04
CGA:  12    -0.344265113488E+03   -0.50564E-03   -0.50623E-03  7488   0.491E-02-0.569E-06
CGA:  13    -0.344265286370E+03   -0.17288E-03   -0.17286E-03  7488   0.278E-02-0.478E-07
CGA:  14    -0.344265558982E+03   -0.27261E-03   -0.27246E-03  7488   0.247E-02 0.326E-05
CGA:  15    -0.344265682151E+03   -0.12317E-03   -0.12317E-03  7488   0.134E-02-0.192E-06
CGA:  16    -0.344265762368E+03   -0.80217E-04   -0.80217E-04  7488   0.986E-03-0.126E-06
CGA:  17    -0.344265797677E+03   -0.35309E-04   -0.35300E-04  7488   0.444E-03-0.365E-06
CGA:  18    -0.344265845369E+03   -0.47692E-04   -0.47650E-04  7488   0.933E-03 0.865E-06
CGA:  19    -0.344265890814E+03   -0.45445E-04   -0.45474E-04  7488   0.364E-03 0.208E-05
CGA:  20    -0.344265905098E+03   -0.14285E-04   -0.14305E-04  7488   0.151E-03 0.599E-06
CGA:  21    -0.344265922406E+03   -0.17308E-04   -0.17256E-04  7488   0.331E-03 0.847E-06
CGA:  22    -0.344265939865E+03   -0.17459E-04   -0.17472E-04  7488   0.177E-03 0.110E-05
CGA:  23    -0.344265945559E+03   -0.56944E-05   -0.57127E-05  7488   0.536E-04 0.556E-06
  19 F= -.34426595E+03 E0= -.34424972E+03  d E =-.587202E-02  mag=    20.0000
       N       E                     dE             d eps       ncg     rms          ort
SDA:   1    -0.343935247852E+03    0.33069E+00    0.00000E+00  7488   0.140E+01 0.000E+00
CGA:   2    -0.344008509836E+03   -0.73262E-01   -0.73325E-01  7488   0.157E+01 0.239E-02
CGA:   3    -0.344128063256E+03   -0.11955E+00   -0.11974E+00  7488   0.190E+01-0.858E-02
CGA:   4    -0.344193360030E+03   -0.65297E-01   -0.65638E-01  7488   0.415E+00-0.303E-02
CGA:   5    -0.344217681213E+03   -0.24321E-01   -0.24299E-01  7488   0.527E+00-0.523E-02
CGA:   6    -0.344248239750E+03   -0.30559E-01   -0.30560E-01  7488   0.193E+00 0.433E-03
CGA:   7    -0.344255077762E+03   -0.68380E-02   -0.68368E-02  7488   0.505E-01 0.202E-04
CGA:   8    -0.344259679957E+03   -0.46022E-02   -0.45907E-02  7488   0.363E-01 0.307E-03
CGA:   9    -0.344261500796E+03   -0.18208E-02   -0.18210E-02  7488   0.210E-01 0.150E-04
CGA:  10    -0.344262399910E+03   -0.89911E-03   -0.89978E-03  7488   0.127E-01 0.123E-04
CGA:  11    -0.344262918276E+03   -0.51837E-03   -0.51831E-03  7488   0.548E-02 0.391E-05
CGA:  12    -0.344263234984E+03   -0.31671E-03   -0.31671E-03  7488   0.366E-02 0.262E-05
CGA:  13    -0.344263593444E+03   -0.35846E-03   -0.35820E-03  7488   0.333E-02 0.637E-05
CGA:  14    -0.344263688407E+03   -0.94963E-04   -0.95060E-04  7488   0.556E-03-0.257E-06
CGA:  15    -0.344263743408E+03   -0.55001E-04   -0.55018E-04  7488   0.108E-02-0.499E-06
CGA:  16    -0.344263805438E+03   -0.62030E-04   -0.62033E-04  7488   0.600E-03 0.430E-06
CGA:  17    -0.344263822783E+03   -0.17345E-04   -0.17363E-04  7488   0.167E-03 0.309E-06
CGA:  18    -0.344263835795E+03   -0.13012E-04   -0.13005E-04  7488   0.187E-03 0.260E-06
CGA:  19    -0.344263850380E+03   -0.14585E-04   -0.14582E-04  7488   0.119E-03 0.103E-06
CGA:  20    -0.344263858703E+03   -0.83233E-05   -0.83229E-05  7488   0.146E-03-0.340E-07
  20 F= -.34426386E+03 E0= -.34424753E+03  d E =0.208686E-02  mag=    20.0000
       N       E                     dE             d eps       ncg     rms          ort
SDA:   1    -0.344197372786E+03    0.66478E-01    0.00000E+00  7488   0.310E+00 0.000E+00
CGA:   2    -0.344211068592E+03   -0.13696E-01   -0.13708E-01  7488   0.349E+00 0.144E-03
CGA:   3    -0.344235842164E+03   -0.24774E-01   -0.24763E-01  7488   0.330E+00 0.659E-03
CGA:   4    -0.344248844273E+03   -0.13002E-01   -0.12950E-01  7488   0.818E-01 0.108E-03
CGA:   5    -0.344258907606E+03   -0.10063E-01   -0.10023E-01  7488   0.811E-01 0.644E-03
CGA:   6    -0.344262503517E+03   -0.35959E-02   -0.35904E-02  7488   0.279E-01 0.243E-05
CGA:   7    -0.344263700252E+03   -0.11967E-02   -0.11974E-02  7488   0.198E-01 0.121E-04
CGA:   8    -0.344264546326E+03   -0.84607E-03   -0.84606E-03  7488   0.735E-02 0.897E-05
CGA:   9    -0.344264943774E+03   -0.39745E-03   -0.39739E-03  7488   0.424E-02-0.331E-05
CGA:  10    -0.344265256645E+03   -0.31287E-03   -0.31281E-03  7488   0.190E-02 0.264E-05
CGA:  11    -0.344265334318E+03   -0.77673E-04   -0.77715E-04  7488   0.108E-02 0.138E-05
CGA:  12    -0.344265387327E+03   -0.53009E-04   -0.53027E-04  7488   0.107E-02 0.226E-05
CGA:  13    -0.344265473086E+03   -0.85759E-04   -0.85690E-04  7488   0.392E-03 0.336E-05
CGA:  14    -0.344265488933E+03   -0.15847E-04   -0.15865E-04  7488   0.153E-03 0.806E-06
CGA:  15    -0.344265502211E+03   -0.13278E-04   -0.13238E-04  7488   0.254E-03 0.143E-05
CGA:  16    -0.344265512890E+03   -0.10679E-04   -0.10700E-04  7488   0.104E-03 0.118E-05
CGA:  17    -0.344265517715E+03   -0.48256E-05   -0.48269E-05  7488   0.564E-04 0.763E-07
  21 F= -.34426552E+03 E0= -.34424924E+03  d E =-.165901E-02  mag=    20.0000
       N       E                     dE             d eps       ncg     rms          ort
SDA:   1    -0.344244867018E+03    0.20646E-01    0.00000E+00  7488   0.215E+00 0.000E+00
CGA:   2    -0.344249698322E+03   -0.48313E-02   -0.48249E-02  7488   0.544E-01 0.215E-03
CGA:   3    -0.344256505937E+03   -0.68076E-02   -0.68085E-02  7488   0.135E+00-0.488E-05
CGA:   4    -0.344262000141E+03   -0.54942E-02   -0.54916E-02  7488   0.411E-01 0.162E-04
CGA:   5    -0.344263567967E+03   -0.15678E-02   -0.15688E-02  7488   0.188E-01 0.126E-04
CGA:   6    -0.344265092229E+03   -0.15243E-02   -0.15220E-02  7488   0.803E-02 0.809E-04
CGA:   7    -0.344265601484E+03   -0.50926E-03   -0.50934E-03  7488   0.521E-02-0.113E-04
CGA:   8    -0.344265901213E+03   -0.29973E-03   -0.29972E-03  7488   0.146E-02-0.373E-06
CGA:   9    -0.344265949247E+03   -0.48034E-04   -0.48069E-04  7488   0.974E-03-0.287E-06
CGA:  10    -0.344266040199E+03   -0.90952E-04   -0.91005E-04  7488   0.877E-03-0.138E-05
CGA:  11    -0.344266069990E+03   -0.29791E-04   -0.29780E-04  7488   0.189E-03-0.207E-06
CGA:  12    -0.344266080628E+03   -0.10638E-04   -0.10639E-04  7488   0.202E-03 0.397E-06
CGA:  13    -0.344266096259E+03   -0.15631E-04   -0.15611E-04  7488   0.131E-03 0.109E-05
CGA:  14    -0.344266101580E+03   -0.53215E-05   -0.53286E-05  7488   0.394E-04 0.356E-06
  22 F= -.34426610E+03 E0= -.34424984E+03  d E =-.583865E-03  mag=    20.0000
       N       E                     dE             d eps       ncg     rms          ort
SDA:   1    -0.342621897705E+03    0.16442E+01    0.00000E+00  7488   0.451E+01 0.000E+00
CGA:   2    -0.343154255906E+03   -0.53236E+00   -0.51887E+00  7488   0.129E+02 0.228E+00
CGA:   3    -0.343813242552E+03   -0.65899E+00   -0.65603E+00  7488   0.658E+01-0.227E-01
CGA:   4    -0.344029324557E+03   -0.21608E+00   -0.22133E+00  7488   0.143E+01-0.429E-01
CGA:   5    -0.344121807138E+03   -0.92483E-01   -0.92690E-01  7488   0.147E+01-0.208E-01
CGA:   6    -0.344218462583E+03   -0.96655E-01   -0.96649E-01  7488   0.687E+00 0.568E-03
CGA:   7    -0.344238495879E+03   -0.20033E-01   -0.19831E-01  7488   0.132E+00 0.387E-02
CGA:   8    -0.344247831945E+03   -0.93361E-02   -0.93409E-02  7488   0.166E+00-0.236E-03
CGA:   9    -0.344257085580E+03   -0.92536E-02   -0.92547E-02  7488   0.105E+00 0.178E-03
CGA:  10    -0.344260359569E+03   -0.32740E-02   -0.33165E-02  7488   0.262E-01-0.509E-03
CGA:  11    -0.344261936826E+03   -0.15773E-02   -0.15773E-02  7488   0.221E-01-0.751E-05
CGA:  12    -0.344263473860E+03   -0.15370E-02   -0.15359E-02  7488   0.107E-01 0.632E-04
CGA:  13    -0.344264081633E+03   -0.60777E-03   -0.60778E-03  7488   0.103E-01 0.165E-05
CGA:  14    -0.344264481599E+03   -0.39997E-03   -0.40036E-03  7488   0.321E-02-0.269E-05
CGA:  15    -0.344264634324E+03   -0.15272E-03   -0.15269E-03  7488   0.214E-02-0.230E-05
CGA:  16    -0.344264821619E+03   -0.18730E-03   -0.18708E-03  7488   0.318E-02 0.531E-05
CGA:  17    -0.344264958985E+03   -0.13737E-03   -0.13749E-03  7488   0.774E-03 0.351E-05
CGA:  18    -0.344264996258E+03   -0.37273E-04   -0.37289E-04  7488   0.507E-03 0.710E-06
CGA:  19    -0.344265045427E+03   -0.49169E-04   -0.49155E-04  7488   0.108E-02-0.114E-06
CGA:  20    -0.344265095898E+03   -0.50471E-04   -0.50515E-04  7488   0.438E-03 0.101E-05
CGA:  21    -0.344265112959E+03   -0.17061E-04   -0.17085E-04  7488   0.144E-03 0.967E-06
CGA:  22    -0.344265127821E+03   -0.14862E-04   -0.14822E-04  7488   0.194E-03 0.701E-06
CGA:  23    -0.344265137691E+03   -0.98699E-05   -0.98758E-05  7488   0.135E-03 0.503E-06
  23 F= -.34426514E+03 E0= -.34424899E+03  d E =0.963889E-03  mag=    20.0000
       N       E                     dE             d eps       ncg     rms          ort
SDA:   1    -0.343654403852E+03    0.61072E+00    0.00000E+00  7488   0.227E+01 0.000E+00
CGA:   2    -0.343761525144E+03   -0.10712E+00   -0.10716E+00  7488   0.308E+01 0.181E-02
CGA:   3    -0.344024979372E+03   -0.26345E+00   -0.26619E+00  7488   0.415E+01-0.813E-01
CGA:   4    -0.344163756137E+03   -0.13878E+00   -0.14635E+00  7488   0.690E+00-0.388E-01
CGA:   5    -0.344194963409E+03   -0.31207E-01   -0.31207E-01  7488   0.639E+00 0.113E-03
CGA:   6    -0.344232924629E+03   -0.37961E-01   -0.37972E-01  7488   0.413E+00-0.387E-02
CGA:   7    -0.344247349867E+03   -0.14425E-01   -0.14501E-01  7488   0.148E+00-0.440E-03
CGA:   8    -0.344253225275E+03   -0.58754E-02   -0.58824E-02  7488   0.845E-01 0.689E-04
CGA:   9    -0.344257410271E+03   -0.41850E-02   -0.41878E-02  7488   0.240E-01 0.172E-03
CGA:  10    -0.344259744629E+03   -0.23344E-02   -0.23305E-02  7488   0.420E-01 0.879E-04
CGA:  11    -0.344261172614E+03   -0.14280E-02   -0.14264E-02  7488   0.125E-01 0.166E-04
CGA:  12    -0.344261609536E+03   -0.43692E-03   -0.43740E-03  7488   0.397E-02 0.949E-06
CGA:  13    -0.344262048442E+03   -0.43891E-03   -0.43785E-03  7488   0.793E-02 0.194E-04
CGA:  14    -0.344262351906E+03   -0.30346E-03   -0.30360E-03  7488   0.135E-02-0.111E-06
CGA:  15    -0.344262409819E+03   -0.57913E-04   -0.57920E-04  7488   0.102E-02-0.197E-06
CGA:  16    -0.344262488518E+03   -0.78699E-04   -0.78656E-04  7488   0.156E-02 0.145E-05
CGA:  17    -0.344262552942E+03   -0.64425E-04   -0.64484E-04  7488   0.524E-03 0.635E-06
CGA:  18    -0.344262583769E+03   -0.30827E-04   -0.30823E-04  7488   0.275E-03 0.833E-06
CGA:  19    -0.344262604711E+03   -0.20942E-04   -0.20925E-04  7488   0.276E-03 0.191E-06
CGA:  20    -0.344262618865E+03   -0.14154E-04   -0.14158E-04  7488   0.271E-03-0.647E-08
CGA:  21    -0.344262638664E+03   -0.19799E-04   -0.19804E-04  7488   0.280E-03-0.635E-06
CGA:  22    -0.344262648565E+03   -0.99015E-05   -0.98932E-05  7488   0.670E-04-0.927E-06
  24 F= -.34426265E+03 E0= -.34424646E+03  d E =0.248913E-02  mag=    20.0000
       N       E                     dE             d eps       ncg     rms          ort
SDA:   1    -0.343926415713E+03    0.33622E+00    0.00000E+00  7488   0.117E+01 0.000E+00
CGA:   2    -0.343998109355E+03   -0.71694E-01   -0.71694E-01  7488   0.205E+01 0.636E-03
CGA:   3    -0.344158335417E+03   -0.16023E+00   -0.16016E+00  7488   0.138E+01 0.175E-02
CGA:   4    -0.344203486635E+03   -0.45151E-01   -0.44332E-01  7488   0.374E+00 0.101E-01
CGA:   5    -0.344225729751E+03   -0.22243E-01   -0.22240E-01  7488   0.464E+00 0.839E-03
CGA:   6    -0.344251831184E+03   -0.26101E-01   -0.26100E-01  7488   0.138E+00-0.982E-03
CGA:   7    -0.344257788656E+03   -0.59575E-02   -0.59513E-02  7488   0.435E-01-0.910E-04
CGA:   8    -0.344260936019E+03   -0.31474E-02   -0.31467E-02  7488   0.447E-01 0.320E-04
CGA:   9    -0.344262709637E+03   -0.17736E-02   -0.17755E-02  7488   0.220E-01 0.995E-05
CGA:  10    -0.344263609466E+03   -0.89983E-03   -0.89939E-03  7488   0.972E-02-0.785E-06
CGA:  11    -0.344264280013E+03   -0.67055E-03   -0.66991E-03  7488   0.375E-02 0.317E-04
CGA:  12    -0.344264550148E+03   -0.27014E-03   -0.27018E-03  7488   0.435E-02-0.307E-05
CGA:  13    -0.344264784825E+03   -0.23468E-03   -0.23467E-03  7488   0.332E-02-0.560E-05
CGA:  14    -0.344264894792E+03   -0.10997E-03   -0.11005E-03  7488   0.585E-03-0.474E-05
CGA:  15    -0.344264931928E+03   -0.37136E-04   -0.37143E-04  7488   0.730E-03-0.109E-05
CGA:  16    -0.344265003533E+03   -0.71605E-04   -0.71662E-04  7488   0.683E-03-0.169E-05
CGA:  17    -0.344265023211E+03   -0.19678E-04   -0.19687E-04  7488   0.129E-03-0.858E-06
CGA:  18    -0.344265036499E+03   -0.13288E-04   -0.13248E-04  7488   0.263E-03 0.671E-06
CGA:  19    -0.344265048400E+03   -0.11901E-04   -0.11908E-04  7488   0.169E-03 0.332E-06
CGA:  20    -0.344265058892E+03   -0.10492E-04   -0.10489E-04  7488   0.118E-03 0.599E-06
CGA:  21    -0.344265065630E+03   -0.67379E-05   -0.67395E-05  7488   0.516E-04 0.897E-06
  25 F= -.34426507E+03 E0= -.34424879E+03  d E =-.241706E-02  mag=    20.0000
       N       E                     dE             d eps       ncg     rms          ort
SDA:   1    -0.344085142005E+03    0.17992E+00    0.00000E+00  7488   0.719E+00 0.000E+00
CGA:   2    -0.344114317734E+03   -0.29176E-01   -0.29073E-01  7488   0.874E+00-0.123E-03
CGA:   3    -0.344202105146E+03   -0.87787E-01   -0.87630E-01  7488   0.855E+00 0.334E-02
CGA:   4    -0.344236870760E+03   -0.34766E-01   -0.34713E-01  7488   0.177E+00-0.171E-03
CGA:   5    -0.344249289570E+03   -0.12419E-01   -0.12451E-01  7488   0.241E+00-0.181E-02
CGA:   6    -0.344261398545E+03   -0.12109E-01   -0.12116E-01  7488   0.549E-01 0.276E-03
CGA:   7    -0.344263339424E+03   -0.19409E-02   -0.19439E-02  7488   0.228E-01-0.231E-04
CGA:   8    -0.344265275237E+03   -0.19358E-02   -0.19339E-02  7488   0.211E-01 0.576E-04
CGA:   9    -0.344265960430E+03   -0.68519E-03   -0.68450E-03  7488   0.933E-02 0.120E-04
CGA:  10    -0.344266494087E+03   -0.53366E-03   -0.53365E-03  7488   0.520E-02-0.214E-05
CGA:  11    -0.344266768898E+03   -0.27481E-03   -0.27481E-03  7488   0.180E-02-0.273E-05
CGA:  12    -0.344266937042E+03   -0.16814E-03   -0.16832E-03  7488   0.241E-02-0.516E-05
CGA:  13    -0.344267073245E+03   -0.13620E-03   -0.13620E-03  7488   0.517E-03-0.307E-05
CGA:  14    -0.344267091299E+03   -0.18054E-04   -0.18045E-04  7488   0.321E-03-0.630E-06
CGA:  15    -0.344267127901E+03   -0.36602E-04   -0.36644E-04  7488   0.518E-03-0.903E-06
CGA:  16    -0.344267147640E+03   -0.19738E-04   -0.19741E-04  7488   0.192E-03-0.454E-06
CGA:  17    -0.344267154751E+03   -0.71110E-05   -0.71170E-05  7488   0.743E-04 0.240E-07
  26 F= -.34426715E+03 E0= -.34425090E+03  d E =-.208912E-02  mag=    20.0000
       N       E                     dE             d eps       ncg     rms          ort
SDA:   1    -0.344148521678E+03    0.11863E+00    0.00000E+00  7488   0.699E+00 0.000E+00
CGA:   2    -0.344170887101E+03   -0.22365E-01   -0.22006E-01  7488   0.409E+00 0.545E-02
CGA:   3    -0.344212333343E+03   -0.41446E-01   -0.41576E-01  7488   0.829E+00-0.277E-02
CGA:   4    -0.344244349385E+03   -0.32016E-01   -0.32166E-01  7488   0.151E+00-0.312E-03
CGA:   5    -0.344252433755E+03   -0.80844E-02   -0.80839E-02  7488   0.149E+00 0.195E-04
CGA:   6    -0.344261268578E+03   -0.88348E-02   -0.88348E-02  7488   0.765E-01 0.347E-04
CGA:   7    -0.344264542010E+03   -0.32734E-02   -0.32746E-02  7488   0.190E-01 0.186E-04
CGA:   8    -0.344265721229E+03   -0.11792E-02   -0.11791E-02  7488   0.164E-01 0.200E-04
CGA:   9    -0.344266423023E+03   -0.70179E-03   -0.70232E-03  7488   0.952E-02 0.961E-05
CGA:  10    -0.344266817424E+03   -0.39440E-03   -0.39436E-03  7488   0.463E-02 0.212E-06
CGA:  11    -0.344267119196E+03   -0.30177E-03   -0.30187E-03  7488   0.191E-02-0.739E-05
CGA:  12    -0.344267219478E+03   -0.10028E-03   -0.10030E-03  7488   0.118E-02 0.282E-05
CGA:  13    -0.344267309489E+03   -0.90011E-04   -0.89947E-04  7488   0.152E-02 0.323E-05
CGA:  14    -0.344267380173E+03   -0.70684E-04   -0.70710E-04  7488   0.243E-03 0.172E-05
CGA:  15    -0.344267392332E+03   -0.12159E-04   -0.12165E-04  7488   0.187E-03 0.741E-06
CGA:  16    -0.344267416777E+03   -0.24445E-04   -0.24385E-04  7488   0.184E-03 0.767E-06
CGA:  17    -0.344267424176E+03   -0.73993E-05   -0.73967E-05  7488   0.717E-04-0.150E-06
  27 F= -.34426742E+03 E0= -.34425121E+03  d E =-.269426E-03  mag=    20.0000
       N       E                     dE             d eps       ncg     rms          ort
SDA:   1    -0.344223877431E+03    0.43539E-01    0.00000E+00  7488   0.341E+00 0.000E+00
CGA:   2    -0.344232373650E+03   -0.84962E-02   -0.85356E-02  7488   0.142E+00-0.970E-03
CGA:   3    -0.344245509383E+03   -0.13136E-01   -0.13161E-01  7488   0.206E+00-0.607E-03
CGA:   4    -0.344257897862E+03   -0.12388E-01   -0.12387E-01  7488   0.439E-01 0.621E-03
CGA:   5    -0.344261508519E+03   -0.36107E-02   -0.36138E-02  7488   0.646E-01-0.970E-04
CGA:   6    -0.344264486360E+03   -0.29778E-02   -0.29791E-02  7488   0.209E-01 0.363E-04
CGA:   7    -0.344265229403E+03   -0.74304E-03   -0.74296E-03  7488   0.831E-02 0.106E-04
CGA:   8    -0.344265671690E+03   -0.44229E-03   -0.44228E-03  7488   0.580E-02 0.163E-05
CGA:   9    -0.344265952042E+03   -0.28035E-03   -0.28031E-03  7488   0.339E-02-0.138E-05
CGA:  10    -0.344266103256E+03   -0.15121E-03   -0.15122E-03  7488   0.150E-02-0.141E-05
CGA:  11    -0.344266207580E+03   -0.10432E-03   -0.10430E-03  7488   0.610E-03 0.137E-05
CGA:  12    -0.344266237771E+03   -0.30192E-04   -0.30195E-04  7488   0.537E-03 0.565E-06
CGA:  13    -0.344266274581E+03   -0.36810E-04   -0.36800E-04  7488   0.669E-03 0.103E-05
CGA:  14    -0.344266300644E+03   -0.26063E-04   -0.26078E-04  7488   0.106E-03 0.581E-06
CGA:  15    -0.344266306765E+03   -0.61213E-05   -0.61207E-05  7488   0.865E-04 0.675E-06
  28 F= -.34426631E+03 E0= -.34425007E+03  d E =0.111741E-02  mag=    20.0000
       N       E                     dE             d eps       ncg     rms          ort
SDA:   1    -0.344220654987E+03    0.45646E-01    0.00000E+00  7488   0.688E+00 0.000E+00
CGA:   2    -0.344234201388E+03   -0.13546E-01   -0.13885E-01  7488   0.112E+00-0.124E-01
CGA:   3    -0.344245324120E+03   -0.11123E-01   -0.11123E-01  7488   0.239E+00 0.132E-04
CGA:   4    -0.344257458192E+03   -0.12134E-01   -0.12136E-01  7488   0.914E-01 0.105E-03
CGA:   5    -0.344260763975E+03   -0.33058E-02   -0.33029E-02  7488   0.360E-01 0.655E-05
CGA:   6    -0.344264203561E+03   -0.34396E-02   -0.34394E-02  7488   0.337E-01 0.278E-05
CGA:   7    -0.344265510475E+03   -0.13069E-02   -0.13061E-02  7488   0.894E-02-0.822E-05
CGA:   8    -0.344265853150E+03   -0.34267E-03   -0.34278E-03  7488   0.621E-02-0.244E-05
CGA:   9    -0.344266238974E+03   -0.38582E-03   -0.38583E-03  7488   0.263E-02-0.190E-05
CGA:  10    -0.344266374687E+03   -0.13571E-03   -0.13571E-03  7488   0.194E-02 0.307E-07
CGA:  11    -0.344266481218E+03   -0.10653E-03   -0.10652E-03  7488   0.898E-03-0.157E-05
CGA:  12    -0.344266514438E+03   -0.33220E-04   -0.33182E-04  7488   0.383E-03-0.206E-05
CGA:  13    -0.344266546177E+03   -0.31740E-04   -0.31816E-04  7488   0.641E-03-0.276E-05
CGA:  14    -0.344266575060E+03   -0.28883E-04   -0.28855E-04  7488   0.194E-03-0.217E-05
CGA:  15    -0.344266581599E+03   -0.65386E-05   -0.65296E-05  7488   0.544E-04-0.449E-06
  29 F= -.34426658E+03 E0= -.34425033E+03  d E =-.274833E-03  mag=    20.0000
       N       E                     dE             d eps       ncg     rms          ort
SDA:   1    -0.344098102672E+03    0.16847E+00    0.00000E+00  7488   0.111E+01 0.000E+00
CGA:   2    -0.344129403237E+03   -0.31301E-01   -0.31866E-01  7488   0.596E+00-0.105E-01
CGA:   3    -0.344187489783E+03   -0.58087E-01   -0.58199E-01  7488   0.973E+00-0.255E-02
CGA:   4    -0.344231998368E+03   -0.44509E-01   -0.44538E-01  7488   0.352E+00 0.577E-03
CGA:   5    -0.344245019285E+03   -0.13021E-01   -0.12995E-01  7488   0.141E+00 0.213E-03
CGA:   6    -0.344255814392E+03   -0.10795E-01   -0.10797E-01  7488   0.152E+00-0.910E-04
CGA:   7    -0.344263445593E+03   -0.76312E-02   -0.76265E-02  7488   0.230E-01-0.189E-03
CGA:   8    -0.344264458872E+03   -0.10133E-02   -0.10136E-02  7488   0.198E-01 0.177E-05
CGA:   9    -0.344265668782E+03   -0.12099E-02   -0.12099E-02  7488   0.180E-01-0.438E-05
CGA:  10    -0.344266389636E+03   -0.72085E-03   -0.72097E-03  7488   0.353E-02-0.496E-05
CGA:  11    -0.344266572022E+03   -0.18239E-03   -0.18239E-03  7488   0.274E-02-0.183E-05
CGA:  12    -0.344266784545E+03   -0.21252E-03   -0.21261E-03  7488   0.270E-02-0.440E-05
CGA:  13    -0.344266890182E+03   -0.10564E-03   -0.10555E-03  7488   0.999E-03-0.357E-05
CGA:  14    -0.344266951237E+03   -0.61055E-04   -0.61068E-04  7488   0.702E-03-0.329E-05
CGA:  15    -0.344266974192E+03   -0.22955E-04   -0.22935E-04  7488   0.267E-03-0.786E-06
CGA:  16    -0.344266995367E+03   -0.21175E-04   -0.21175E-04  7488   0.339E-03-0.127E-06
CGA:  17    -0.344267019962E+03   -0.24595E-04   -0.24594E-04  7488   0.146E-03 0.831E-08
CGA:  18    -0.344267025466E+03   -0.55035E-05   -0.55056E-05  7488   0.612E-04-0.133E-07
  30 F= -.34426703E+03 E0= -.34425072E+03  d E =-.443867E-03  mag=    20.0000
       N       E                     dE             d eps       ncg     rms          ort
SDA:   1    -0.343695820592E+03    0.57120E+00    0.00000E+00  7488   0.172E+01 0.000E+00
CGA:   2    -0.343886291951E+03   -0.19047E+00   -0.18971E+00  7488   0.406E+01 0.144E-01
CGA:   3    -0.344081669484E+03   -0.19538E+00   -0.19464E+00  7488   0.214E+01-0.138E-01
CGA:   4    -0.344160157365E+03   -0.78488E-01   -0.79011E-01  7488   0.749E+00-0.174E-02
CGA:   5    -0.344205762503E+03   -0.45605E-01   -0.45613E-01  7488   0.770E+00-0.139E-02
CGA:   6    -0.344246718637E+03   -0.40956E-01   -0.40967E-01  7488   0.275E+00 0.100E-02
CGA:   7    -0.344255782985E+03   -0.90643E-02   -0.90370E-02  7488   0.648E-01 0.335E-03
CGA:   8    -0.344261850611E+03   -0.60676E-02   -0.60636E-02  7488   0.834E-01 0.106E-03
CGA:   9    -0.344265925427E+03   -0.40748E-02   -0.40753E-02  7488   0.245E-01 0.872E-05
CGA:  10    -0.344266631251E+03   -0.70582E-03   -0.70734E-03  7488   0.105E-01-0.296E-04
CGA:  11    -0.344267642826E+03   -0.10116E-02   -0.10115E-02  7488   0.146E-01 0.379E-05
CGA:  12    -0.344268361375E+03   -0.71855E-03   -0.71863E-03  7488   0.303E-02 0.239E-05
CGA:  13    -0.344268514297E+03   -0.15292E-03   -0.15292E-03  7488   0.230E-02-0.110E-05
CGA:  14    -0.344268643599E+03   -0.12930E-03   -0.12931E-03  7488   0.197E-02 0.193E-05
CGA:  15    -0.344268752380E+03   -0.10878E-03   -0.10879E-03  7488   0.114E-02 0.221E-05
CGA:  16    -0.344268805436E+03   -0.53056E-04   -0.53064E-04  7488   0.802E-03 0.682E-06
CGA:  17    -0.344268841188E+03   -0.35751E-04   -0.35752E-04  7488   0.283E-03 0.353E-06
CGA:  18    -0.344268861040E+03   -0.19852E-04   -0.19840E-04  7488   0.277E-03 0.787E-06
CGA:  19    -0.344268888181E+03   -0.27142E-04   -0.27075E-04  7488   0.333E-03 0.160E-05
CGA:  20    -0.344268899165E+03   -0.10983E-04   -0.10995E-04  7488   0.102E-03 0.298E-06
CGA:  21    -0.344268904116E+03   -0.49510E-05   -0.49524E-05  7488   0.868E-04 0.138E-06
  31 F= -.34426890E+03 E0= -.34425267E+03  d E =-.187865E-02  mag=    20.0000
       N       E                     dE             d eps       ncg     rms          ort
SDA:   1    -0.343552790498E+03    0.71611E+00    0.00000E+00  7488   0.257E+01 0.000E+00
CGA:   2    -0.343687778271E+03   -0.13499E+00   -0.13477E+00  7488   0.403E+01-0.957E-02
CGA:   3    -0.344061077578E+03   -0.37330E+00   -0.37501E+00  7488   0.257E+01-0.471E-01
CGA:   4    -0.344135745519E+03   -0.74668E-01   -0.75725E-01  7488   0.876E+00-0.174E-01
CGA:   5    -0.344194498765E+03   -0.58753E-01   -0.58773E-01  7488   0.101E+01-0.134E-02
CGA:   6    -0.344243588752E+03   -0.49090E-01   -0.48936E-01  7488   0.261E+00-0.332E-02
CGA:   7    -0.344255108525E+03   -0.11520E-01   -0.11534E-01  7488   0.945E-01 0.185E-03
CGA:   8    -0.344261773849E+03   -0.66653E-02   -0.66620E-02  7488   0.113E+00 0.208E-03
CGA:   9    -0.344265875019E+03   -0.41012E-02   -0.40964E-02  7488   0.405E-01 0.364E-04
CGA:  10    -0.344267794741E+03   -0.19197E-02   -0.19208E-02  7488   0.199E-01 0.278E-04
CGA:  11    -0.344269130273E+03   -0.13355E-02   -0.13360E-02  7488   0.933E-02-0.307E-04
CGA:  12    -0.344269683467E+03   -0.55319E-03   -0.55314E-03  7488   0.110E-01 0.237E-04
CGA:  13    -0.344270271004E+03   -0.58754E-03   -0.58760E-03  7488   0.624E-02 0.511E-05
CGA:  14    -0.344270487350E+03   -0.21635E-03   -0.21668E-03  7488   0.135E-02-0.393E-05
CGA:  15    -0.344270579331E+03   -0.91981E-04   -0.91950E-04  7488   0.214E-02 0.179E-05
CGA:  16    -0.344270734468E+03   -0.15514E-03   -0.15505E-03  7488   0.128E-02 0.456E-05
CGA:  17    -0.344270781391E+03   -0.46923E-04   -0.46978E-04  7488   0.324E-03-0.159E-06
CGA:  18    -0.344270805539E+03   -0.24148E-04   -0.24134E-04  7488   0.573E-03 0.170E-06
CGA:  19    -0.344270837982E+03   -0.32443E-04   -0.32444E-04  7488   0.404E-03 0.300E-06
CGA:  20    -0.344270858744E+03   -0.20762E-04   -0.20771E-04  7488   0.194E-03 0.392E-06
CGA:  21    -0.344270872594E+03   -0.13850E-04   -0.13851E-04  7488   0.144E-03-0.567E-06
CGA:  22    -0.344270880229E+03   -0.76349E-05   -0.76334E-05  7488   0.127E-03-0.790E-06
  32 F= -.34427088E+03 E0= -.34425474E+03  d E =-.197611E-02  mag=    20.0000
       N       E                     dE             d eps       ncg     rms          ort
SDA:   1    -0.343767683991E+03    0.50319E+00    0.00000E+00  7488   0.248E+01 0.000E+00
CGA:   2    -0.343844857155E+03   -0.77173E-01   -0.76193E-01  7488   0.199E+01 0.144E-01
CGA:   3    -0.344096414253E+03   -0.25156E+00   -0.25006E+00  7488   0.169E+01 0.211E-01
CGA:   4    -0.344179731677E+03   -0.83317E-01   -0.82320E-01  7488   0.520E+00-0.208E-01
CGA:   5    -0.344223638849E+03   -0.43907E-01   -0.43804E-01  7488   0.562E+00 0.321E-02
CGA:   6    -0.344248108704E+03   -0.24470E-01   -0.24484E-01  7488   0.213E+00 0.135E-03
CGA:   7    -0.344255600469E+03   -0.74918E-02   -0.74780E-02  7488   0.781E-01 0.130E-03
CGA:   8    -0.344260099199E+03   -0.44987E-02   -0.44987E-02  7488   0.642E-01-0.425E-05
CGA:   9    -0.344262637086E+03   -0.25379E-02   -0.25394E-02  7488   0.285E-01 0.133E-04
CGA:  10    -0.344264263683E+03   -0.16266E-02   -0.16266E-02  7488   0.187E-01 0.319E-04
CGA:  11    -0.344265347651E+03   -0.10840E-02   -0.10839E-02  7488   0.554E-02 0.312E-04
CGA:  12    -0.344265692881E+03   -0.34523E-03   -0.34521E-03  7488   0.555E-02-0.436E-06
CGA:  13    -0.344266187976E+03   -0.49509E-03   -0.49512E-03  7488   0.257E-02-0.151E-05
CGA:  14    -0.344266275250E+03   -0.87274E-04   -0.87281E-04  7488   0.920E-03-0.226E-05
CGA:  15    -0.344266336613E+03   -0.61363E-04   -0.61362E-04  7488   0.127E-02-0.533E-06
CGA:  16    -0.344266427618E+03   -0.91004E-04   -0.90990E-04  7488   0.882E-03-0.404E-07
CGA:  17    -0.344266455822E+03   -0.28204E-04   -0.28244E-04  7488   0.336E-03-0.221E-06
CGA:  18    -0.344266479114E+03   -0.23292E-04   -0.23287E-04  7488   0.260E-03-0.201E-07
CGA:  19    -0.344266499703E+03   -0.20589E-04   -0.20590E-04  7488   0.213E-03-0.510E-06
CGA:  20    -0.344266519186E+03   -0.19483E-04   -0.19454E-04  7488   0.258E-03 0.390E-06
CGA:  21    -0.344266529995E+03   -0.10809E-04   -0.10821E-04  7488   0.110E-03 0.115E-06
CGA:  22    -0.344266534831E+03   -0.48353E-05   -0.48377E-05  7488   0.620E-04-0.148E-06
  33 F= -.34426653E+03 E0= -.34425035E+03  d E =0.434540E-02  mag=    20.0000
       N       E                     dE             d eps       ncg     rms          ort
SDA:   1    -0.344076482043E+03    0.19005E+00    0.00000E+00  7488   0.110E+01 0.000E+00
CGA:   2    -0.344112114732E+03   -0.35633E-01   -0.34650E-01  7488   0.676E+00 0.157E-01
CGA:   3    -0.344184699954E+03   -0.72585E-01   -0.72670E-01  7488   0.112E+01-0.187E-02
CGA:   4    -0.344229266389E+03   -0.44566E-01   -0.44478E-01  7488   0.332E+00 0.402E-03
CGA:   5    -0.344241532063E+03   -0.12266E-01   -0.12257E-01  7488   0.183E+00 0.115E-03
CGA:   6    -0.344258785113E+03   -0.17253E-01   -0.17254E-01  7488   0.138E+00-0.254E-04
CGA:   7    -0.344264123597E+03   -0.53385E-02   -0.53438E-02  7488   0.253E-01-0.218E-04
CGA:   8    -0.344265827286E+03   -0.17037E-02   -0.17033E-02  7488   0.205E-01 0.317E-04
CGA:   9    -0.344267549091E+03   -0.17218E-02   -0.17226E-02  7488   0.799E-02-0.285E-04
CGA:  10    -0.344267838800E+03   -0.28971E-03   -0.28976E-03  7488   0.351E-02-0.432E-05
CGA:  11    -0.344268095751E+03   -0.25695E-03   -0.25695E-03  7488   0.439E-02-0.267E-06
CGA:  12    -0.344268290490E+03   -0.19474E-03   -0.19471E-03  7488   0.178E-02-0.195E-05
CGA:  13    -0.344268386304E+03   -0.95813E-04   -0.95800E-04  7488   0.169E-02-0.253E-05
CGA:  14    -0.344268451462E+03   -0.65158E-04   -0.65140E-04  7488   0.317E-03-0.243E-05
CGA:  15    -0.344268482408E+03   -0.30946E-04   -0.30926E-04  7488   0.431E-03 0.188E-06
CGA:  16    -0.344268518201E+03   -0.35793E-04   -0.35802E-04  7488   0.204E-03-0.743E-06
CGA:  17    -0.344268525411E+03   -0.72098E-05   -0.72079E-05  7488   0.747E-04-0.301E-06
  34 F= -.34426853E+03 E0= -.34425229E+03  d E =-.199058E-02  mag=    20.0000
       N       E                     dE             d eps       ncg     rms          ort
SDA:   1    -0.344139579447E+03    0.12894E+00    0.00000E+00  7488   0.121E+01 0.000E+00
CGA:   2    -0.344166056621E+03   -0.26477E-01   -0.26595E-01  7488   0.347E+00-0.346E-02
CGA:   3    -0.344213630333E+03   -0.47574E-01   -0.47739E-01  7488   0.846E+00-0.226E-02
CGA:   4    -0.344246711883E+03   -0.33082E-01   -0.33256E-01  7488   0.175E+00-0.692E-03
CGA:   5    -0.344254991334E+03   -0.82795E-02   -0.82796E-02  7488   0.125E+00 0.487E-04
CGA:   6    -0.344263179045E+03   -0.81877E-02   -0.81895E-02  7488   0.791E-01-0.235E-03
CGA:   7    -0.344267178260E+03   -0.39992E-02   -0.39987E-02  7488   0.151E-01-0.126E-04
CGA:   8    -0.344268203095E+03   -0.10248E-02   -0.10246E-02  7488   0.131E-01 0.173E-04
CGA:   9    -0.344268926544E+03   -0.72345E-03   -0.72342E-03  7488   0.563E-02-0.157E-05
CGA:  10    -0.344269230408E+03   -0.30386E-03   -0.30384E-03  7488   0.487E-02-0.202E-05
CGA:  11    -0.344269463346E+03   -0.23294E-03   -0.23292E-03  7488   0.148E-02-0.268E-05
CGA:  12    -0.344269528261E+03   -0.64915E-04   -0.64893E-04  7488   0.129E-02-0.748E-06
CGA:  13    -0.344269617069E+03   -0.88808E-04   -0.88809E-04  7488   0.131E-02-0.248E-06
CGA:  14    -0.344269669043E+03   -0.51974E-04   -0.51996E-04  7488   0.174E-03 0.445E-06
CGA:  15    -0.344269683604E+03   -0.14561E-04   -0.14555E-04  7488   0.228E-03 0.194E-06
CGA:  16    -0.344269702995E+03   -0.19391E-04   -0.19374E-04  7488   0.195E-03 0.625E-06
CGA:  17    -0.344269709732E+03   -0.67374E-05   -0.67468E-05  7488   0.511E-04 0.278E-06
  35 F= -.34426971E+03 E0= -.34425349E+03  d E =-.118432E-02  mag=    20.0000
       N       E                     dE             d eps       ncg     rms          ort
SDA:   1    -0.344007987315E+03    0.26172E+00    0.00000E+00  7488   0.101E+01 0.000E+00
CGA:   2    -0.344051925526E+03   -0.43938E-01   -0.43712E-01  7488   0.132E+01-0.127E-02
CGA:   3    -0.344180534474E+03   -0.12861E+00   -0.12829E+00  7488   0.117E+01 0.713E-02
CGA:   4    -0.344222000444E+03   -0.41466E-01   -0.41329E-01  7488   0.311E+00 0.116E-02
CGA:   5    -0.344238488134E+03   -0.16488E-01   -0.16463E-01  7488   0.304E+00-0.123E-02
CGA:   6    -0.344259412998E+03   -0.20925E-01   -0.20924E-01  7488   0.104E+00 0.105E-03
CGA:   7    -0.344263293646E+03   -0.38806E-02   -0.38831E-02  7488   0.324E-01-0.734E-05
CGA:   8    -0.344265776263E+03   -0.24826E-02   -0.24805E-02  7488   0.343E-01 0.846E-04
CGA:   9    -0.344266972637E+03   -0.11964E-02   -0.11948E-02  7488   0.158E-01 0.134E-04
CGA:  10    -0.344267781750E+03   -0.80911E-03   -0.80922E-03  7488   0.773E-02 0.547E-05
CGA:  11    -0.344268261252E+03   -0.47950E-03   -0.47954E-03  7488   0.327E-02-0.711E-05
CGA:  12    -0.344268467452E+03   -0.20620E-03   -0.20620E-03  7488   0.293E-02 0.653E-07
CGA:  13    -0.344268686946E+03   -0.21949E-03   -0.21941E-03  7488   0.188E-02 0.427E-05
CGA:  14    -0.344268748962E+03   -0.62017E-04   -0.62079E-04  7488   0.446E-03 0.114E-06
CGA:  15    -0.344268786295E+03   -0.37333E-04   -0.37322E-04  7488   0.587E-03 0.271E-07
CGA:  16    -0.344268845243E+03   -0.58948E-04   -0.58811E-04  7488   0.205E-03 0.286E-05
CGA:  17    -0.344268852983E+03   -0.77404E-05   -0.77513E-05  7488   0.137E-03 0.164E-06
CGA:  18    -0.344268863716E+03   -0.10733E-04   -0.10727E-04  7488   0.219E-03-0.971E-08
CGA:  19    -0.344268874941E+03   -0.11225E-04   -0.11229E-04  7488   0.109E-03 0.341E-07
CGA:  20    -0.344268882927E+03   -0.79859E-05   -0.79844E-05  7488   0.101E-03-0.850E-07
  36 F= -.34426888E+03 E0= -.34425273E+03  d E =0.826805E-03  mag=    20.0000
       N       E                     dE             d eps       ncg     rms          ort
SDA:   1    -0.344012556704E+03    0.25632E+00    0.00000E+00  7488   0.880E+00 0.000E+00
CGA:   2    -0.344077460710E+03   -0.64904E-01   -0.65116E-01  7488   0.154E+01-0.105E-01
CGA:   3    -0.344176557687E+03   -0.99097E-01   -0.99096E-01  7488   0.100E+01 0.202E-03
CGA:   4    -0.344219432914E+03   -0.42875E-01   -0.42763E-01  7488   0.323E+00-0.460E-03
CGA:   5    -0.344235298966E+03   -0.15866E-01   -0.15809E-01  7488   0.320E+00-0.123E-02
[...]
CGA:  22    -0.344116684786E+03   -0.51989E-04   -0.51896E-04  7488   0.350E-03 0.352E-05
CGA:  23    -0.344116699893E+03   -0.15107E-04   -0.15122E-04  7488   0.118E-03 0.464E-06
CGA:  24    -0.344116708228E+03   -0.83356E-05   -0.83314E-05  7488   0.173E-03 0.902E-07
CGA:  25    -0.344116718531E+03   -0.10302E-04   -0.10302E-04  7488   0.118E-03-0.356E-06
CGA:  26    -0.344116724639E+03   -0.61084E-05   -0.61074E-05  7488   0.484E-04-0.416E-06
  47 F= -.34411672E+03 E0= -.34410019E+03  d E =-.255832E+00  mag=    20.0000
       N       E                     dE             d eps       ncg     rms          ort
SDA:   1    -0.342869983135E+03    0.12467E+01    0.00000E+00  7488   0.725E+01 0.000E+00
CGA:   2    -0.343184503540E+03   -0.31452E+00   -0.31455E+00  7488   0.592E+01-0.988E-02
CGA:   3    -0.343606341068E+03   -0.42184E+00   -0.41992E+00  7488   0.693E+01 0.980E-01
CGA:   4    -0.343879671892E+03   -0.27333E+00   -0.27266E+00  7488   0.191E+01 0.407E-02
CGA:   5    -0.344013252534E+03   -0.13358E+00   -0.13373E+00  7488   0.210E+01-0.743E-02
CGA:   6    -0.344143915306E+03   -0.13066E+00   -0.13056E+00  7488   0.129E+01 0.147E-01
CGA:   7    -0.344186033332E+03   -0.42118E-01   -0.42176E-01  7488   0.238E+00-0.645E-03
CGA:   8    -0.344199897155E+03   -0.13864E-01   -0.13869E-01  7488   0.189E+00-0.263E-02
CGA:   9    -0.344216406122E+03   -0.16509E-01   -0.16437E-01  7488   0.515E-01 0.197E-02
CGA:  10    -0.344218415874E+03   -0.20098E-02   -0.20175E-02  7488   0.268E-01 0.372E-05
CGA:  11    -0.344220830870E+03   -0.24150E-02   -0.24149E-02  7488   0.424E-01 0.105E-04
CGA:  12    -0.344222551512E+03   -0.17206E-02   -0.17223E-02  7488   0.102E-01 0.102E-05
CGA:  13    -0.344223117855E+03   -0.56634E-03   -0.56633E-03  7488   0.838E-02 0.214E-05
CGA:  14    -0.344223458297E+03   -0.34044E-03   -0.34068E-03  7488   0.512E-02 0.429E-05
CGA:  15    -0.344223809323E+03   -0.35103E-03   -0.35099E-03  7488   0.273E-02 0.326E-05
CGA:  16    -0.344224020315E+03   -0.21099E-03   -0.21077E-03  7488   0.188E-02 0.101E-04
CGA:  17    -0.344224098093E+03   -0.77778E-04   -0.77840E-04  7488   0.763E-03 0.220E-05
CGA:  18    -0.344224148082E+03   -0.49989E-04   -0.49980E-04  7488   0.984E-03 0.115E-05
CGA:  19    -0.344224230346E+03   -0.82264E-04   -0.82165E-04  7488   0.547E-03 0.357E-05
CGA:  20    -0.344224250162E+03   -0.19817E-04   -0.19853E-04  7488   0.221E-03 0.126E-05
CGA:  21    -0.344224266546E+03   -0.16384E-04   -0.16358E-04  7488   0.399E-03 0.158E-05
CGA:  22    -0.344224289997E+03   -0.23450E-04   -0.23452E-04  7488   0.198E-03 0.186E-05
CGA:  23    -0.344224299842E+03   -0.98451E-05   -0.98565E-05  7488   0.710E-04 0.101E-05
  48 F= -.34422430E+03 E0= -.34420790E+03  d E =-.107575E+00  mag=    20.0000
       N       E                     dE             d eps       ncg     rms          ort
SDA:   1    -0.343620084096E+03    0.60421E+00    0.00000E+00  7488   0.351E+01 0.000E+00
CGA:   2    -0.343771691468E+03   -0.15161E+00   -0.15118E+00  7488   0.275E+01-0.337E-02
CGA:   3    -0.343950804949E+03   -0.17911E+00   -0.17884E+00  7488   0.327E+01 0.253E-01
CGA:   4    -0.344098705529E+03   -0.14790E+00   -0.14739E+00  7488   0.887E+00-0.629E-02
CGA:   5    -0.344158841253E+03   -0.60136E-01   -0.60120E-01  7488   0.942E+00 0.112E-02
CGA:   6    -0.344218368515E+03   -0.59527E-01   -0.59511E-01  7488   0.657E+00 0.213E-02
CGA:   7    -0.344239825030E+03   -0.21457E-01   -0.21590E-01  7488   0.119E+00-0.138E-02
CGA:   8    -0.344245670238E+03   -0.58452E-02   -0.58274E-02  7488   0.869E-01-0.696E-03
CGA:   9    -0.344251621177E+03   -0.59509E-02   -0.59485E-02  7488   0.885E-01 0.141E-03
CGA:  10    -0.344254385825E+03   -0.27646E-02   -0.27707E-02  7488   0.107E-01-0.623E-04
CGA:  11    -0.344255249783E+03   -0.86396E-03   -0.86594E-03  7488   0.166E-01-0.637E-04
CGA:  12    -0.344256458024E+03   -0.12082E-02   -0.12079E-02  7488   0.829E-02 0.153E-04
CGA:  13    -0.344256704801E+03   -0.24678E-03   -0.24703E-03  7488   0.301E-02-0.457E-05
CGA:  14    -0.344256879225E+03   -0.17442E-03   -0.17442E-03  7488   0.233E-02 0.565E-06
CGA:  15    -0.344257113871E+03   -0.23465E-03   -0.23459E-03  7488   0.185E-02 0.122E-05
CGA:  16    -0.344257171748E+03   -0.57877E-04   -0.57914E-04  7488   0.613E-03 0.116E-05
CGA:  17    -0.344257209756E+03   -0.38008E-04   -0.37999E-04  7488   0.529E-03 0.181E-05
CGA:  18    -0.344257247167E+03   -0.37411E-04   -0.37390E-04  7488   0.533E-03 0.158E-05
CGA:  19    -0.344257268841E+03   -0.21674E-04   -0.21697E-04  7488   0.291E-03 0.873E-06
CGA:  20    -0.344257289181E+03   -0.20341E-04   -0.20315E-04  7488   0.139E-03 0.191E-05
CGA:  21    -0.344257296712E+03   -0.75308E-05   -0.75347E-05  7488   0.121E-03 0.804E-06
  49 F= -.34425730E+03 E0= -.34424099E+03  d E =-.329969E-01  mag=    20.0000
       N       E                     dE             d eps       ncg     rms          ort
SDA:   1    -0.344076815662E+03    0.18047E+00    0.00000E+00  7488   0.169E+01 0.000E+00
CGA:   2    -0.344116425678E+03   -0.39610E-01   -0.39349E-01  7488   0.604E+00 0.876E-02
CGA:   3    -0.344182148828E+03   -0.65723E-01   -0.65655E-01  7488   0.842E+00 0.128E-02
CGA:   4    -0.344220731364E+03   -0.38583E-01   -0.38467E-01  7488   0.195E+00-0.154E-02
CGA:   5    -0.344241526441E+03   -0.20795E-01   -0.20804E-01  7488   0.373E+00-0.167E-03
CGA:   6    -0.344256084313E+03   -0.14558E-01   -0.14531E-01  7488   0.926E-01 0.734E-04
CGA:   7    -0.344259193684E+03   -0.31094E-02   -0.31243E-02  7488   0.313E-01-0.155E-03
CGA:   8    -0.344261472267E+03   -0.22786E-02   -0.22783E-02  7488   0.361E-01 0.195E-04
CGA:   9    -0.344262701559E+03   -0.12293E-02   -0.12301E-02  7488   0.805E-02-0.888E-05
CGA:  10    -0.344263352782E+03   -0.65122E-03   -0.65195E-03  7488   0.583E-02-0.248E-04
CGA:  11    -0.344263590557E+03   -0.23777E-03   -0.23784E-03  7488   0.270E-02-0.945E-06
CGA:  12    -0.344263764257E+03   -0.17370E-03   -0.17371E-03  7488   0.383E-02-0.146E-05
CGA:  13    -0.344263950238E+03   -0.18598E-03   -0.18598E-03  7488   0.104E-02-0.184E-05
CGA:  14    -0.344263997107E+03   -0.46868E-04   -0.46861E-04  7488   0.472E-03-0.650E-06
CGA:  15    -0.344264039653E+03   -0.42546E-04   -0.42565E-04  7488   0.763E-03-0.847E-06
CGA:  16    -0.344264073905E+03   -0.34252E-04   -0.34247E-04  7488   0.314E-03-0.636E-06
CGA:  17    -0.344264085180E+03   -0.11274E-04   -0.11278E-04  7488   0.104E-03 0.375E-07
CGA:  18    -0.344264093562E+03   -0.83829E-05   -0.83583E-05  7488   0.162E-03 0.968E-06
  50 F= -.34426409E+03 E0= -.34424785E+03  d E =-.679685E-02  mag=    20.0000
       N       E                     dE             d eps       ncg     rms          ort
SDA:   1    -0.344176893040E+03    0.87192E-01    0.00000E+00  7488   0.567E+00 0.000E+00
CGA:   2    -0.344194871958E+03   -0.17979E-01   -0.18279E-01  7488   0.376E+00-0.333E-02
CGA:   3    -0.344223723325E+03   -0.28851E-01   -0.28861E-01  7488   0.441E+00-0.296E-03
CGA:   4    -0.344243884836E+03   -0.20162E-01   -0.20120E-01  7488   0.114E+00-0.723E-03
CGA:   5    -0.344253299504E+03   -0.94147E-02   -0.94179E-02  7488   0.146E+00-0.966E-04
CGA:   6    -0.344260572726E+03   -0.72732E-02   -0.72741E-02  7488   0.711E-01 0.403E-04
CGA:   7    -0.344262948365E+03   -0.23756E-02   -0.23638E-02  7488   0.245E-01 0.123E-03
CGA:   8    -0.344264384386E+03   -0.14360E-02   -0.14358E-02  7488   0.125E-01 0.703E-04
CGA:   9    -0.344264868057E+03   -0.48367E-03   -0.48340E-03  7488   0.648E-02 0.230E-05
CGA:  10    -0.344265280949E+03   -0.41289E-03   -0.41283E-03  7488   0.443E-02 0.765E-05
CGA:  11    -0.344265513779E+03   -0.23283E-03   -0.23282E-03  7488   0.193E-02 0.573E-06
CGA:  12    -0.344265584089E+03   -0.70310E-04   -0.70321E-04  7488   0.969E-03-0.460E-06
CGA:  13    -0.344265653817E+03   -0.69728E-04   -0.69733E-04  7488   0.144E-02-0.194E-06
CGA:  14    -0.344265730206E+03   -0.76389E-04   -0.76389E-04  7488   0.223E-03-0.179E-06
CGA:  15    -0.344265743742E+03   -0.13536E-04   -0.13539E-04  7488   0.262E-03-0.619E-06
CGA:  16    -0.344265759172E+03   -0.15430E-04   -0.15431E-04  7488   0.238E-03-0.443E-06
CGA:  17    -0.344265769326E+03   -0.10154E-04   -0.10157E-04  7488   0.830E-04 0.201E-06
CGA:  18    -0.344265774958E+03   -0.56324E-05   -0.56313E-05  7488   0.719E-04 0.648E-07
  51 F= -.34426577E+03 E0= -.34424957E+03  d E =-.168140E-02  mag=    20.0000
       N       E                     dE             d eps       ncg     rms          ort
SDA:   1    -0.344252417370E+03    0.13352E-01    0.00000E+00  7488   0.127E+00 0.000E+00
CGA:   2    -0.344255612102E+03   -0.31947E-02   -0.31964E-02  7488   0.384E-01-0.296E-04
CGA:   3    -0.344260232200E+03   -0.46201E-02   -0.46218E-02  7488   0.695E-01-0.205E-04
CGA:   4    -0.344262783349E+03   -0.25511E-02   -0.25479E-02  7488   0.230E-01 0.148E-04
CGA:   5    -0.344263801845E+03   -0.10185E-02   -0.10188E-02  7488   0.178E-01 0.141E-04
CGA:   6    -0.344265031561E+03   -0.12297E-02   -0.12296E-02  7488   0.931E-02 0.119E-04
CGA:   7    -0.344265496189E+03   -0.46463E-03   -0.46466E-03  7488   0.341E-02 0.620E-05
CGA:   8    -0.344265687847E+03   -0.19166E-03   -0.19166E-03  7488   0.183E-02 0.534E-05
CGA:   9    -0.344265764209E+03   -0.76362E-04   -0.76392E-04  7488   0.109E-02 0.924E-06
CGA:  10    -0.344265813338E+03   -0.49129E-04   -0.49125E-04  7488   0.652E-03-0.355E-06
CGA:  11    -0.344265857505E+03   -0.44166E-04   -0.44177E-04  7488   0.325E-03-0.784E-06
CGA:  12    -0.344265868111E+03   -0.10606E-04   -0.10616E-04  7488   0.114E-03 0.342E-06
CGA:  13    -0.344265880405E+03   -0.12294E-04   -0.12249E-04  7488   0.203E-03 0.852E-06
CGA:  14    -0.344265889684E+03   -0.92784E-05   -0.92825E-05  7488   0.406E-04 0.357E-06
  52 F= -.34426589E+03 E0= -.34424970E+03  d E =-.114725E-03  mag=    20.0000
       N       E                     dE             d eps       ncg     rms          ort
SDA:   1    -0.344255110794E+03    0.10770E-01    0.00000E+00  7488   0.201E+00 0.000E+00
CGA:   2    -0.344258762370E+03   -0.36516E-02   -0.36793E-02  7488   0.217E-01-0.114E-02
CGA:   3    -0.344261373732E+03   -0.26114E-02   -0.26162E-02  7488   0.508E-01-0.694E-04
CGA:   4    -0.344263792174E+03   -0.24184E-02   -0.24194E-02  7488   0.153E-01 0.296E-04
CGA:   5    -0.344264426206E+03   -0.63403E-03   -0.63413E-03  7488   0.839E-02 0.892E-05
CGA:   6    -0.344265098505E+03   -0.67230E-03   -0.67188E-03  7488   0.735E-02 0.175E-04
CGA:   7    -0.344265416237E+03   -0.31773E-03   -0.31770E-03  7488   0.225E-02 0.599E-05
CGA:   8    -0.344265502475E+03   -0.86238E-04   -0.86300E-04  7488   0.135E-02 0.238E-05
CGA:   9    -0.344265567977E+03   -0.65502E-04   -0.65508E-04  7488   0.647E-03 0.101E-05
CGA:  10    -0.344265607346E+03   -0.39369E-04   -0.39384E-04  7488   0.342E-03-0.243E-05
CGA:  11    -0.344265630308E+03   -0.22962E-04   -0.22987E-04  7488   0.251E-03-0.196E-05
CGA:  12    -0.344265639351E+03   -0.90432E-05   -0.90375E-05  7488   0.844E-04-0.322E-06
  53 F= -.34426564E+03 E0= -.34424947E+03  d E =0.250332E-03  mag=    20.0000
       N       E                     dE             d eps       ncg     rms          ort
SDA:   1    -0.344250626565E+03    0.15004E-01    0.00000E+00  7488   0.321E+00 0.000E+00
CGA:   2    -0.344256822225E+03   -0.61957E-02   -0.60790E-02  7488   0.329E-01 0.457E-02
CGA:   3    -0.344258666916E+03   -0.18447E-02   -0.18446E-02  7488   0.393E-01 0.239E-04
CGA:   4    -0.344262627879E+03   -0.39610E-02   -0.39625E-02  7488   0.264E-01-0.317E-04
CGA:   5    -0.344263732471E+03   -0.11046E-02   -0.11043E-02  7488   0.137E-01-0.147E-05
CGA:   6    -0.344264340704E+03   -0.60823E-03   -0.60867E-03  7488   0.745E-02 0.143E-04
CGA:   7    -0.344264686055E+03   -0.34535E-03   -0.34541E-03  7488   0.427E-02 0.838E-05
CGA:   8    -0.344264889672E+03   -0.20362E-03   -0.20366E-03  7488   0.313E-02 0.495E-05
CGA:   9    -0.344265046983E+03   -0.15731E-03   -0.15731E-03  7488   0.946E-03 0.244E-06
CGA:  10    -0.344265085332E+03   -0.38349E-04   -0.38343E-04  7488   0.293E-03-0.360E-06
CGA:  11    -0.344265111875E+03   -0.26543E-04   -0.26603E-04  7488   0.418E-03-0.156E-05
CGA:  12    -0.344265133669E+03   -0.21794E-04   -0.21788E-04  7488   0.191E-03-0.238E-05
CGA:  13    -0.344265138577E+03   -0.49083E-05   -0.48905E-05  7488   0.485E-04-0.652E-06
  54 F= -.34426514E+03 E0= -.34424898E+03  d E =0.500775E-03  mag=    20.0000
       N       E                     dE             d eps       ncg     rms          ort
SDA:   1    -0.344203055551E+03    0.62078E-01    0.00000E+00  7488   0.235E+00 0.000E+00
CGA:   2    -0.344216704727E+03   -0.13649E-01   -0.13650E-01  7488   0.294E+00 0.425E-03
CGA:   3    -0.344240406900E+03   -0.23702E-01   -0.23708E-01  7488   0.298E+00-0.186E-03
CGA:   4    -0.344252688069E+03   -0.12281E-01   -0.12280E-01  7488   0.610E-01-0.228E-04
CGA:   5    -0.344257547695E+03   -0.48596E-02   -0.48542E-02  7488   0.775E-01 0.217E-03
CGA:   6    -0.344260320029E+03   -0.27723E-02   -0.27770E-02  7488   0.304E-01-0.734E-05
CGA:   7    -0.344261731382E+03   -0.14114E-02   -0.14115E-02  7488   0.148E-01 0.940E-05
CGA:   8    -0.344262607530E+03   -0.87615E-03   -0.87619E-03  7488   0.373E-02-0.209E-04
CGA:   9    -0.344262817814E+03   -0.21028E-03   -0.21028E-03  7488   0.334E-02-0.142E-05
CGA:  10    -0.344263047295E+03   -0.22948E-03   -0.22951E-03  7488   0.312E-02-0.297E-05
CGA:  11    -0.344263145792E+03   -0.98497E-04   -0.98405E-04  7488   0.605E-03-0.286E-05
CGA:  12    -0.344263180311E+03   -0.34520E-04   -0.34519E-04  7488   0.626E-03-0.138E-05
CGA:  13    -0.344263225370E+03   -0.45058E-04   -0.45066E-04  7488   0.553E-03-0.610E-06
CGA:  14    -0.344263247635E+03   -0.22266E-04   -0.22265E-04  7488   0.138E-03-0.257E-06
CGA:  15    -0.344263255295E+03   -0.76596E-05   -0.76598E-05  7488   0.118E-03 0.917E-07
  55 F= -.34426326E+03 E0= -.34424711E+03  d E =0.188328E-02  mag=    20.0000
       N       E                     dE             d eps       ncg     rms          ort
SDA:   1    -0.344185738281E+03    0.77509E-01    0.00000E+00  7488   0.933E+00 0.000E+00
CGA:   2    -0.344204433287E+03   -0.18695E-01   -0.18806E-01  7488   0.192E+00-0.364E-02
CGA:   3    -0.344228153821E+03   -0.23721E-01   -0.23868E-01  7488   0.389E+00-0.228E-02
CGA:   4    -0.344246878284E+03   -0.18724E-01   -0.18785E-01  7488   0.117E+00 0.153E-02
CGA:   5    -0.344252841689E+03   -0.59634E-02   -0.59589E-02  7488   0.867E-01-0.159E-03
CGA:   6    -0.344257247558E+03   -0.44059E-02   -0.44020E-02  7488   0.348E-01-0.167E-03
CGA:   7    -0.344259201494E+03   -0.19539E-02   -0.19539E-02  7488   0.233E-01-0.135E-05
CGA:   8    -0.344260613497E+03   -0.14120E-02   -0.14119E-02  7488   0.894E-02 0.273E-04
CGA:   9    -0.344260870200E+03   -0.25670E-03   -0.25650E-03  7488   0.354E-02 0.610E-05
CGA:  10    -0.344261109272E+03   -0.23907E-03   -0.23904E-03  7488   0.303E-02 0.219E-05
CGA:  11    -0.344261351077E+03   -0.24180E-03   -0.24179E-03  7488   0.945E-03 0.939E-06
CGA:  12    -0.344261390970E+03   -0.39893E-04   -0.39902E-04  7488   0.585E-03 0.122E-06
CGA:  13    -0.344261433842E+03   -0.42872E-04   -0.42903E-04  7488   0.848E-03-0.202E-05
CGA:  14    -0.344261470330E+03   -0.36488E-04   -0.36443E-04  7488   0.206E-03-0.294E-05
CGA:  15    -0.344261480926E+03   -0.10596E-04   -0.10593E-04  7488   0.197E-03-0.498E-06
CGA:  16    -0.344261491851E+03   -0.10925E-04   -0.10924E-04  7488   0.968E-04-0.193E-06
CGA:  17    -0.344261498234E+03   -0.63839E-05   -0.63800E-05  7488   0.100E-03 0.392E-06
  56 F= -.34426150E+03 E0= -.34424536E+03  d E =0.175706E-02  mag=    20.0000
       N       E                     dE             d eps       ncg     rms          ort
SDA:   1    -0.344171852908E+03    0.89639E-01    0.00000E+00  7488   0.634E+00 0.000E+00
CGA:   2    -0.344187289927E+03   -0.15437E-01   -0.15648E-01  7488   0.291E+00-0.534E-02
CGA:   3    -0.344225693386E+03   -0.38403E-01   -0.38390E-01  7488   0.377E+00 0.207E-03
CGA:   4    -0.344242171400E+03   -0.16478E-01   -0.16452E-01  7488   0.105E+00-0.872E-04
CGA:   5    -0.344250469341E+03   -0.82979E-02   -0.83119E-02  7488   0.113E+00-0.541E-03
CGA:   6    -0.344254869025E+03   -0.43997E-02   -0.43966E-02  7488   0.480E-01 0.116E-04
CGA:   7    -0.344256946825E+03   -0.20778E-02   -0.20768E-02  7488   0.276E-01-0.814E-06
CGA:   8    -0.344258361104E+03   -0.14143E-02   -0.14149E-02  7488   0.782E-02 0.295E-04
CGA:   9    -0.344258675930E+03   -0.31483E-03   -0.31479E-03  7488   0.499E-02 0.326E-05
CGA:  10    -0.344259079220E+03   -0.40329E-03   -0.40320E-03  7488   0.439E-02 0.421E-05
CGA:  11    -0.344259257730E+03   -0.17851E-03   -0.17853E-03  7488   0.113E-02 0.169E-05
CGA:  12    -0.344259311288E+03   -0.53558E-04   -0.53579E-04  7488   0.103E-02 0.111E-05
CGA:  13    -0.344259375668E+03   -0.64381E-04   -0.64376E-04  7488   0.103E-02 0.109E-05
CGA:  14    -0.344259426946E+03   -0.51278E-04   -0.51282E-04  7488   0.216E-03 0.182E-06
CGA:  15    -0.344259442355E+03   -0.15409E-04   -0.15405E-04  7488   0.213E-03 0.149E-06
CGA:  16    -0.344259453964E+03   -0.11609E-04   -0.11610E-04  7488   0.177E-03 0.112E-06
CGA:  17    -0.344259461945E+03   -0.79811E-05   -0.79841E-05  7488   0.118E-03 0.214E-06
  57 F= -.34425946E+03 E0= -.34424329E+03  d E =0.203629E-02  mag=    20.0000
       N       E                     dE             d eps       ncg     rms          ort
SDA:   1    -0.344229445428E+03    0.30009E-01    0.00000E+00  7488   0.347E+00 0.000E+00
CGA:   2    -0.344237482095E+03   -0.80367E-02   -0.81476E-02  7488   0.793E-01-0.313E-02
CGA:   3    -0.344244440592E+03   -0.69585E-02   -0.69500E-02  7488   0.167E+00 0.251E-03
CGA:   4    -0.344253143610E+03   -0.87030E-02   -0.86977E-02  7488   0.508E-01-0.294E-03
CGA:   5    -0.344254991896E+03   -0.18483E-02   -0.18474E-02  7488   0.266E-01 0.188E-04
CGA:   6    -0.344257211404E+03   -0.22195E-02   -0.22173E-02  7488   0.257E-01 0.744E-04
CGA:   7    -0.344258384031E+03   -0.11726E-02   -0.11713E-02  7488   0.354E-02-0.169E-04
CGA:   8    -0.344258570371E+03   -0.18634E-03   -0.18636E-03  7488   0.468E-02 0.210E-05
CGA:   9    -0.344258841894E+03   -0.27152E-03   -0.27152E-03  7488   0.209E-02-0.795E-06
CGA:  10    -0.344258917432E+03   -0.75539E-04   -0.75534E-04  7488   0.517E-03-0.660E-06
CGA:  11    -0.344258951900E+03   -0.34468E-04   -0.34467E-04  7488   0.647E-03 0.224E-06
CGA:  12    -0.344258991917E+03   -0.40017E-04   -0.40009E-04  7488   0.389E-03 0.165E-05
CGA:  13    -0.344259008699E+03   -0.16782E-04   -0.16795E-04  7488   0.174E-03 0.977E-06
CGA:  14    -0.344259017335E+03   -0.86356E-05   -0.86372E-05  7488   0.122E-03 0.235E-06
  58 F= -.34425902E+03 E0= -.34424284E+03  d E =0.444611E-03  mag=    20.0000
       N       E                     dE             d eps       ncg     rms          ort
SDA:   1    -0.344249701064E+03    0.93076E-02    0.00000E+00  7488   0.188E+00 0.000E+00
CGA:   2    -0.344253360468E+03   -0.36594E-02   -0.36353E-02  7488   0.244E-01 0.930E-03
CGA:   3    -0.344255181913E+03   -0.18214E-02   -0.18217E-02  7488   0.339E-01-0.104E-04
CGA:   4    -0.344257048111E+03   -0.18662E-02   -0.18662E-02  7488   0.179E-01-0.103E-05
CGA:   5    -0.344258130487E+03   -0.10824E-02   -0.10823E-02  7488   0.151E-01 0.558E-05
CGA:   6    -0.344258810674E+03   -0.68019E-03   -0.68046E-03  7488   0.407E-02 0.472E-05
CGA:   7    -0.344259043107E+03   -0.23243E-03   -0.23246E-03  7488   0.333E-02-0.704E-05
CGA:   8    -0.344259316012E+03   -0.27291E-03   -0.27306E-03  7488   0.139E-02-0.532E-05
CGA:   9    -0.344259349279E+03   -0.33267E-04   -0.33234E-04  7488   0.337E-03 0.413E-06
CGA:  10    -0.344259374564E+03   -0.25284E-04   -0.25302E-04  7488   0.429E-03-0.858E-06
CGA:  11    -0.344259400760E+03   -0.26196E-04   -0.26206E-04  7488   0.107E-03-0.158E-05
CGA:  12    -0.344259406127E+03   -0.53672E-05   -0.53656E-05  7488   0.640E-04-0.298E-06
  59 F= -.34425941E+03 E0= -.34424324E+03  d E =-.388792E-03  mag=    20.0000
