       N       E                     dE             d eps       ncg     rms          ort
DAV:   1     0.539341749908E+04    0.53934E+04   -0.25749E+05  7488   0.160E+03
DAV:   2     0.275630245610E+03   -0.51178E+04   -0.48592E+04  7488   0.451E+02
DAV:   3    -0.378641823737E+03   -0.65427E+03   -0.63913E+03  7488   0.173E+02
DAV:   4    -0.403758605334E+03   -0.25117E+02   -0.24690E+02  7488   0.392E+01
DAV:   5    -0.404738198391E+03   -0.97959E+00   -0.97406E+00  7488   0.680E+00
SDA:   6    -0.181629756307E+03    0.22311E+03   -0.97406E+00  7488   0.136E+04 0.000E+00
CGA:   7    -0.188801675399E+03   -0.71719E+01   -0.10537E+03  7488   0.280E+04-0.354E+03
CGA:   8    -0.217928360258E+03   -0.29127E+02   -0.82464E+02  7488   0.339E+04-0.161E+04
CGA:   9    -0.137928302793E+02    0.20414E+03   -0.17374E+03  7488   0.807E+04-0.382E+04
CGA:  10    -0.344417651041E+02   -0.20649E+02   -0.30179E+03  7488   0.288E+04-0.258E+04
CGA:  11    -0.249409765330E+03   -0.21497E+03   -0.27032E+02  7488   0.331E+04 0.674E+04
CGA:  12    -0.113334629419E+03    0.13608E+03   -0.14870E+03  7488   0.843E+04-0.492E+04
CGA:  13    -0.149399897396E+01    0.11184E+03   -0.42485E+03  7488   0.496E+04-0.513E+04
CGA:  14    -0.239135789700E+03   -0.23764E+03   -0.15590E+03  7488   0.519E+04-0.245E+04
CGA:  15    -0.226367523084E+03    0.12768E+02   -0.10027E+03  7488   0.338E+04-0.141E+04
CGA:  16    -0.281831997197E+03   -0.55464E+02   -0.80104E+02  7488   0.136E+04-0.139E+04
CGA:  17    -0.303541574139E+03   -0.21710E+02   -0.29434E+02  7488   0.185E+04-0.132E+04
CGA:  18    -0.223209043249E+03    0.80333E+02   -0.94473E+02  7488   0.293E+04-0.951E+03
CGA:  19    -0.266689485978E+03   -0.43480E+02   -0.67196E+02  7488   0.509E+04-0.604E+04
CGA:  20    -0.190119056647E+03    0.76570E+02   -0.20425E+03  7488   0.296E+04-0.174E+04
CGA:  21    -0.318796058374E+03   -0.12868E+03   -0.37142E+02  7488   0.960E+03 0.199E+04
CGA:  22    -0.284134608146E+03    0.34661E+02   -0.31564E+02  7488   0.333E+04-0.169E+04
CGA:  23    -0.206285864383E+03    0.77849E+02   -0.12809E+03  7488   0.427E+04-0.200E+04
CGA:  24    -0.184090017614E+03    0.22196E+02   -0.15360E+03  7488   0.478E+04-0.365E+04
CGA:  25    -0.214243109048E+03   -0.30153E+02   -0.13246E+03  7488   0.346E+04-0.265E+04
CGA:  26    -0.205160362472E+03    0.90827E+01   -0.89179E+02  7488   0.517E+04-0.546E+04
CGA:  27    -0.156990586366E+03    0.48170E+02   -0.15958E+03  7488   0.374E+04-0.300E+04
CGA:  28    -0.296229176524E+03   -0.13924E+03   -0.71262E+02  7488   0.181E+04-0.467E+04
CGA:  29    -0.213609732584E+03    0.82619E+02   -0.49463E+02  7488   0.779E+04-0.415E+04
CGA:  30    -0.147468914626E+03    0.66141E+02   -0.21385E+03  7488   0.388E+04-0.295E+04
CGA:  31    -0.223094536811E+03   -0.75626E+02   -0.53663E+02  7488   0.648E+04-0.793E+04
CGA:  32    -0.981874511457E+02    0.12491E+03   -0.17726E+03  7488   0.389E+04-0.252E+04
CGA:  33    -0.303221763039E+03   -0.20503E+03   -0.38125E+02  7488   0.319E+04-0.918E+04
CGA:  34    -0.201422023894E+03    0.10180E+03   -0.70464E+02  7488   0.163E+05-0.822E+04
CGA:  35    -0.141169862056E+03    0.60252E+02   -0.49228E+03  7488   0.135E+04-0.105E+04
CGA:  36    -0.192688456368E+03   -0.51519E+02   -0.11644E+02  7488   0.322E+04 0.404E+04
CGA:  37    -0.239128445919E+03   -0.46440E+02   -0.59046E+02  7488   0.886E+04-0.119E+05
CGA:  38    -0.147546271085E+03    0.91582E+02   -0.24670E+03  7488   0.196E+04-0.140E+04
CGA:  39    -0.279373501536E+03   -0.13183E+03   -0.16102E+02  7488   0.811E+04 0.145E+05
CGA:  40    -0.127058427139E+03    0.15232E+03   -0.18431E+03  7488   0.105E+05-0.558E+04
CGA:  41    -0.138318665208E+03   -0.11260E+02   -0.24996E+03  7488   0.187E+04-0.171E+04
CGA:  42    -0.253875347074E+03   -0.11556E+03   -0.16063E+02  7488   0.751E+04 0.122E+05
CGA:  43    -0.169426786386E+03    0.84449E+02   -0.14971E+03  7488   0.173E+05-0.124E+05
CGA:  44    -0.137532777042E+03    0.31894E+02   -0.40748E+03  7488   0.197E+04-0.160E+04
CGA:  45    -0.304240842561E+03   -0.16671E+03   -0.20104E+02  7488   0.213E+04 0.620E+04
CGA:  46    -0.332054853396E+03   -0.27814E+02   -0.23206E+02  7488   0.770E+03-0.173E+03
CGA:  47    -0.332189278467E+03   -0.13443E+00   -0.71892E+01  7488   0.112E+04-0.863E+03
CGA:  48    -0.336508495771E+03   -0.43192E+01   -0.12516E+02  7488   0.664E+03-0.883E+03
CGA:  49    -0.339381152426E+03   -0.28727E+01   -0.65356E+01  7488   0.200E+03-0.338E+03
CGA:  50    -0.340727825296E+03   -0.13467E+01   -0.11931E+01  7488   0.577E+01 0.211E+02
CGA:  51    -0.340814056958E+03   -0.86232E-01   -0.81686E-01  7488   0.765E+01 0.271E+00
CGA:  52    -0.341120656320E+03   -0.30660E+00   -0.30681E+00  7488   0.257E+02-0.593E+00
CGA:  53    -0.341415169584E+03   -0.29451E+00   -0.30317E+00  7488   0.354E+02-0.668E+00
CGA:  54    -0.341916404946E+03   -0.50124E+00   -0.55177E+00  7488   0.373E+02-0.184E+01
CGA:  55    -0.342176348103E+03   -0.25994E+00   -0.21065E+00  7488   0.216E+02 0.658E+01
CGA:  56    -0.342352233895E+03   -0.17589E+00   -0.16484E+00  7488   0.144E+02 0.128E+01
CGA:  57    -0.342446769793E+03   -0.94536E-01   -0.10583E+00  7488   0.914E+01-0.136E+01
CGA:  58    -0.342497972115E+03   -0.51202E-01   -0.58597E-01  7488   0.731E+01-0.841E+00
CGA:  59    -0.342558324876E+03   -0.60353E-01   -0.66379E-01  7488   0.824E+01-0.451E+00
CGA:  60    -0.342622090817E+03   -0.63766E-01   -0.66355E-01  7488   0.585E+01-0.249E+00
CGA:  61    -0.342678918280E+03   -0.56827E-01   -0.55742E-01  7488   0.756E+01 0.862E-01
CGA:  62    -0.342777694291E+03   -0.98776E-01   -0.92879E-01  7488   0.118E+02 0.310E+00
CGA:  63    -0.342883084772E+03   -0.10539E+00   -0.10412E+00  7488   0.101E+02 0.256E+00
CGA:  64    -0.342955170822E+03   -0.72086E-01   -0.78444E-01  7488   0.628E+01-0.663E+00
CGA:  65    -0.343003600125E+03   -0.48429E-01   -0.52246E-01  7488   0.572E+01-0.306E+00
CGA:  66    -0.343062967640E+03   -0.59368E-01   -0.61767E-01  7488   0.618E+01-0.117E+00
CGA:  67    -0.343124325947E+03   -0.61358E-01   -0.64451E-01  7488   0.500E+01-0.160E+00
CGA:  68    -0.343178972515E+03   -0.54647E-01   -0.57545E-01  7488   0.453E+01-0.102E+00
CGA:  69    -0.343237483930E+03   -0.58511E-01   -0.60987E-01  7488   0.376E+01-0.294E-01
CGA:  70    -0.343287592991E+03   -0.50109E-01   -0.52981E-01  7488   0.258E+01-0.450E-02
CGA:  71    -0.343342474533E+03   -0.54882E-01   -0.54903E-01  7488   0.289E+01 0.108E+00
CGA:  72    -0.343414018533E+03   -0.71544E-01   -0.71426E-01  7488   0.226E+01 0.290E-01
CGA:  73    -0.343461385239E+03   -0.47367E-01   -0.47434E-01  7488   0.172E+01 0.444E-01
CGA:  74    -0.343504562155E+03   -0.43177E-01   -0.42872E-01  7488   0.138E+01 0.628E-01
CGA:  75    -0.343549788602E+03   -0.45226E-01   -0.43864E-01  7488   0.169E+01 0.114E+00
CGA:  76    -0.343630408485E+03   -0.80620E-01   -0.75971E-01  7488   0.109E+01 0.212E+00
CGA:  77    -0.343663236333E+03   -0.32828E-01   -0.32559E-01  7488   0.523E+00 0.488E-01
CGA:  78    -0.343705867419E+03   -0.42631E-01   -0.41687E-01  7488   0.768E+00 0.202E-01
CGA:  79    -0.343748694930E+03   -0.42828E-01   -0.42786E-01  7488   0.381E+00 0.136E-02
SDA:  80    -0.343762263588E+03   -0.13569E-01   -0.13464E-01  7488   0.299E+00 0.919E-02
CGA:  81    -0.343771958567E+03   -0.96950E-02   -0.96922E-02  7488   0.178E+00 0.388E-03
CGA:  82    -0.343784930012E+03   -0.12971E-01   -0.12871E-01  7488   0.211E+00 0.240E-02
CGA:  83    -0.343802329252E+03   -0.17399E-01   -0.17223E-01  7488   0.240E+00 0.374E-02
CGA:  84    -0.343832309788E+03   -0.29981E-01   -0.29189E-01  7488   0.221E+00 0.106E-01
CGA:  85    -0.343839533830E+03   -0.72240E-02   -0.72027E-02  7488   0.576E-01-0.118E-02
CGA:  86    -0.343842787597E+03   -0.32538E-02   -0.32512E-02  7488   0.638E-01 0.102E-03
CGA:  87    -0.343848044977E+03   -0.52574E-02   -0.53591E-02  7488   0.106E+00-0.228E-02
CGA:  88    -0.343853112899E+03   -0.50679E-02   -0.50605E-02  7488   0.298E-01 0.414E-03
CGA:  89    -0.343854362422E+03   -0.12495E-02   -0.12496E-02  7488   0.209E-01-0.620E-04
CGA:  90    -0.343858215908E+03   -0.38535E-02   -0.39585E-02  7488   0.418E-01-0.979E-03
CGA:  91    -0.343859660644E+03   -0.14447E-02   -0.14485E-02  7488   0.869E-02 0.502E-04
CGA:  92    -0.343860108601E+03   -0.44796E-03   -0.44829E-03  7488   0.129E-01-0.454E-04
CGA:  93    -0.343861665577E+03   -0.15570E-02   -0.15355E-02  7488   0.136E-01 0.296E-03
CGA:  94    -0.343862230095E+03   -0.56452E-03   -0.56321E-03  7488   0.685E-02-0.573E-05
CGA:  95    -0.343862672745E+03   -0.44265E-03   -0.44250E-03  7488   0.481E-02 0.205E-04
CGA:  96    -0.343862906245E+03   -0.23350E-03   -0.23361E-03  7488   0.311E-02 0.358E-04
CGA:  97    -0.343863204202E+03   -0.29796E-03   -0.30103E-03  7488   0.733E-02-0.677E-04
CGA:  98    -0.343863545519E+03   -0.34132E-03   -0.34237E-03  7488   0.350E-02 0.120E-03
CGA:  99    -0.343863683704E+03   -0.13818E-03   -0.13860E-03  7488   0.976E-03 0.298E-04
CGA: 100    -0.343863744551E+03   -0.60848E-04   -0.60832E-04  7488   0.182E-02 0.216E-05
CGA: 101    -0.343863895181E+03   -0.15063E-03   -0.15056E-03  7488   0.265E-02 0.933E-06
CGA: 102    -0.343863993836E+03   -0.98655E-04   -0.98300E-04  7488   0.484E-03-0.374E-05
CGA: 103    -0.343864017899E+03   -0.24063E-04   -0.24048E-04  7488   0.642E-03-0.399E-05
CGA: 104    -0.343864073628E+03   -0.55729E-04   -0.56039E-04  7488   0.136E-02-0.979E-05
CGA: 105    -0.343864136078E+03   -0.62450E-04   -0.62165E-04  7488   0.397E-03-0.182E-04
CGA: 106    -0.343864153081E+03   -0.17003E-04   -0.16944E-04  7488   0.306E-03-0.557E-05
CGA: 107    -0.343864167693E+03   -0.14612E-04   -0.14579E-04  7488   0.296E-03-0.645E-05
CGA: 108    -0.343864183602E+03   -0.15909E-04   -0.15918E-04  7488   0.236E-03-0.934E-05
CGA: 109    -0.343864200646E+03   -0.17043E-04   -0.17355E-04  7488   0.428E-03-0.145E-04
CGA: 110    -0.343864218285E+03   -0.17640E-04   -0.17481E-04  7488   0.205E-03-0.127E-04
SDA: 111    -0.343864223724E+03   -0.54388E-05   -0.53499E-05  7488   0.581E-04-0.417E-05
   1 F= -.34386422E+03 E0= -.34384739E+03  d E =-.343864E+03  mag=    20.0000
       N       E                     dE             d eps       ncg     rms          ort
SDA:   1    -0.343852860129E+03    0.11358E-01    0.00000E+00  7488   0.591E+00 0.000E+00
CGA:   2    -0.343863745933E+03   -0.10886E-01   -0.11189E-01  7488   0.215E-01-0.119E-01
CGA:   3    -0.343864203473E+03   -0.45754E-03   -0.45694E-03  7488   0.121E-02 0.289E-04
CGA:   4    -0.343864235279E+03   -0.31807E-04   -0.31843E-04  7488   0.338E-03 0.144E-05
CGA:   5    -0.343864263314E+03   -0.28035E-04   -0.27985E-04  7488   0.270E-03 0.170E-05
CGA:   6    -0.343864275605E+03   -0.12291E-04   -0.12298E-04  7488   0.124E-03 0.857E-06
CGA:   7    -0.343864285918E+03   -0.10314E-04   -0.10256E-04  7488   0.604E-04 0.200E-05
CGA:   8    -0.343864288418E+03   -0.24997E-05   -0.25129E-05  7488   0.383E-04 0.963E-06
   2 F= -.34386429E+03 E0= -.34384741E+03  d E =-.646943E-04  mag=    20.0000
       N       E                     dE             d eps       ncg     rms          ort
SDA:   1    -0.343860032001E+03    0.42539E-02    0.00000E+00  7488   0.217E+00 0.000E+00
CGA:   2    -0.343863779086E+03   -0.37471E-02   -0.37043E-02  7488   0.768E-02 0.197E-02
CGA:   3    -0.343863981255E+03   -0.20217E-03   -0.20218E-03  7488   0.120E-02 0.456E-05
CGA:   4    -0.343864078455E+03   -0.97200E-04   -0.97132E-04  7488   0.220E-02 0.259E-05
CGA:   5    -0.343864210461E+03   -0.13201E-03   -0.13201E-03  7488   0.985E-03-0.267E-06
CGA:   6    -0.343864253118E+03   -0.42657E-04   -0.42640E-04  7488   0.485E-03-0.114E-05
CGA:   7    -0.343864282406E+03   -0.29287E-04   -0.29291E-04  7488   0.445E-03-0.510E-06
CGA:   8    -0.343864299143E+03   -0.16737E-04   -0.16732E-04  7488   0.225E-03-0.375E-06
CGA:   9    -0.343864309813E+03   -0.10671E-04   -0.10668E-04  7488   0.110E-03-0.481E-06
CGA:  10    -0.343864316058E+03   -0.62450E-05   -0.62471E-05  7488   0.252E-04-0.548E-06
   3 F= -.34386432E+03 E0= -.34384744E+03  d E =-.276400E-04  mag=    20.0000
       N       E                     dE             d eps       ncg     rms          ort
SDA:   1    -0.343808313511E+03    0.55996E-01    0.00000E+00  7488   0.317E+00 0.000E+00
CGA:   2    -0.343817404826E+03   -0.90913E-02   -0.91301E-02  7488   0.216E+00-0.526E-03
CGA:   3    -0.343840341856E+03   -0.22937E-01   -0.23012E-01  7488   0.292E+00-0.138E-02
CGA:   4    -0.343851986860E+03   -0.11645E-01   -0.11672E-01  7488   0.665E-01 0.250E-03
CGA:   5    -0.343857843422E+03   -0.58566E-02   -0.58657E-02  7488   0.901E-01-0.231E-03
CGA:   6    -0.343861320007E+03   -0.34766E-02   -0.34833E-02  7488   0.283E-01 0.431E-04
CGA:   7    -0.343862544739E+03   -0.12247E-02   -0.12246E-02  7488   0.143E-01 0.331E-05
CGA:   8    -0.343863156023E+03   -0.61128E-03   -0.61146E-03  7488   0.814E-02 0.727E-05
CGA:   9    -0.343863509349E+03   -0.35333E-03   -0.35328E-03  7488   0.389E-02 0.209E-05
CGA:  10    -0.343863714370E+03   -0.20502E-03   -0.20502E-03  7488   0.281E-02 0.234E-05
CGA:  11    -0.343863893584E+03   -0.17921E-03   -0.17924E-03  7488   0.614E-03-0.120E-05
CGA:  12    -0.343863925701E+03   -0.32117E-04   -0.32117E-04  7488   0.984E-03 0.424E-06
CGA:  13    -0.343863993606E+03   -0.67905E-04   -0.67867E-04  7488   0.449E-03 0.260E-05
CGA:  14    -0.343864010676E+03   -0.17070E-04   -0.17095E-04  7488   0.103E-03 0.142E-05
CGA:  15    -0.343864019909E+03   -0.92324E-05   -0.92285E-05  7488   0.197E-03 0.353E-07
   4 F= -.34386402E+03 E0= -.34384714E+03  d E =0.296150E-03  mag=    20.0000
       N       E                     dE             d eps       ncg     rms          ort
SDA:   1    -0.343763161676E+03    0.10085E+00    0.00000E+00  7488   0.432E+00 0.000E+00
CGA:   2    -0.343793091753E+03   -0.29930E-01   -0.29997E-01  7488   0.489E+00-0.323E-02
CGA:   3    -0.343825898590E+03   -0.32807E-01   -0.32833E-01  7488   0.318E+00-0.146E-02
CGA:   4    -0.343837981520E+03   -0.12083E-01   -0.12081E-01  7488   0.183E+00 0.346E-04
CGA:   5    -0.343848239884E+03   -0.10258E-01   -0.10258E-01  7488   0.181E+00 0.327E-03
CGA:   6    -0.343857239612E+03   -0.89997E-02   -0.89977E-02  7488   0.625E-01-0.141E-03
CGA:   7    -0.343859915761E+03   -0.26761E-02   -0.26766E-02  7488   0.361E-01 0.190E-05
CGA:   8    -0.343861690289E+03   -0.17745E-02   -0.17738E-02  7488   0.135E-01-0.521E-04
CGA:   9    -0.343862383419E+03   -0.69313E-03   -0.69324E-03  7488   0.691E-02 0.203E-04
CGA:  10    -0.343862792409E+03   -0.40899E-03   -0.40900E-03  7488   0.831E-02 0.447E-06
CGA:  11    -0.343863090707E+03   -0.29830E-03   -0.29841E-03  7488   0.156E-02-0.283E-05
CGA:  12    -0.343863170411E+03   -0.79704E-04   -0.79705E-04  7488   0.125E-02-0.844E-06
CGA:  13    -0.343863312860E+03   -0.14245E-03   -0.14268E-03  7488   0.109E-02-0.371E-05
CGA:  14    -0.343863345571E+03   -0.32711E-04   -0.32671E-04  7488   0.347E-03-0.131E-05
CGA:  15    -0.343863363806E+03   -0.18235E-04   -0.18232E-04  7488   0.302E-03-0.108E-05
CGA:  16    -0.343863382236E+03   -0.18430E-04   -0.18429E-04  7488   0.246E-03 0.127E-06
CGA:  17    -0.343863391705E+03   -0.94689E-05   -0.94748E-05  7488   0.111E-03 0.278E-06
   5 F= -.34386339E+03 E0= -.34384644E+03  d E =0.628204E-03  mag=    20.0000
       N       E                     dE             d eps       ncg     rms          ort
SDA:   1    -0.343816909469E+03    0.46473E-01    0.00000E+00  7488   0.338E+00 0.000E+00
CGA:   2    -0.343826304758E+03   -0.93953E-02   -0.93488E-02  7488   0.181E+00 0.892E-03
CGA:   3    -0.343841111043E+03   -0.14806E-01   -0.14806E-01  7488   0.248E+00 0.330E-04
CGA:   4    -0.343852503263E+03   -0.11392E-01   -0.11402E-01  7488   0.768E-01 0.299E-03
CGA:   5    -0.343857483290E+03   -0.49800E-02   -0.49823E-02  7488   0.622E-01-0.146E-03
CGA:   6    -0.343861855087E+03   -0.43718E-02   -0.43727E-02  7488   0.437E-01-0.394E-04
CGA:   7    -0.343863238534E+03   -0.13834E-02   -0.13846E-02  7488   0.120E-01-0.755E-05
CGA:   8    -0.343863876044E+03   -0.63751E-03   -0.63746E-03  7488   0.957E-02-0.924E-05
CGA:   9    -0.343864272698E+03   -0.39665E-03   -0.39669E-03  7488   0.442E-02 0.588E-06
CGA:  10    -0.343864461327E+03   -0.18863E-03   -0.18865E-03  7488   0.259E-02 0.411E-06
CGA:  11    -0.343864653732E+03   -0.19241E-03   -0.19234E-03  7488   0.743E-03 0.277E-05
CGA:  12    -0.343864690378E+03   -0.36646E-04   -0.36650E-04  7488   0.606E-03 0.694E-06
CGA:  13    -0.343864731861E+03   -0.41483E-04   -0.41485E-04  7488   0.932E-03-0.124E-06
CGA:  14    -0.343864770302E+03   -0.38440E-04   -0.38429E-04  7488   0.160E-03-0.556E-06
CGA:  15    -0.343864777437E+03   -0.71354E-05   -0.71363E-05  7488   0.103E-03 0.778E-07
   6 F= -.34386478E+03 E0= -.34384784E+03  d E =-.138573E-02  mag=    20.0000
       N       E                     dE             d eps       ncg     rms          ort
SDA:   1    -0.343093827766E+03    0.77094E+00    0.00000E+00  7488   0.322E+01 0.000E+00
CGA:   2    -0.343244550501E+03   -0.15072E+00   -0.15027E+00  7488   0.388E+01-0.140E-01
CGA:   3    -0.343541609089E+03   -0.29706E+00   -0.29593E+00  7488   0.386E+01 0.405E-01
CGA:   4    -0.343687657953E+03   -0.14605E+00   -0.14623E+00  7488   0.129E+01 0.329E-02
CGA:   5    -0.343743769530E+03   -0.56112E-01   -0.56168E-01  7488   0.971E+00 0.147E-02
CGA:   6    -0.343818040817E+03   -0.74271E-01   -0.74446E-01  7488   0.644E+00-0.635E-02
CGA:   7    -0.343840928446E+03   -0.22888E-01   -0.23179E-01  7488   0.109E+00-0.535E-03
CGA:   8    -0.343847863591E+03   -0.69351E-02   -0.69347E-02  7488   0.135E+00 0.536E-04
CGA:   9    -0.343854297052E+03   -0.64335E-02   -0.64343E-02  7488   0.935E-01 0.628E-04
CGA:  10    -0.343857342380E+03   -0.30453E-02   -0.30560E-02  7488   0.157E-01-0.815E-04
CGA:  11    -0.343858598808E+03   -0.12564E-02   -0.12558E-02  7488   0.175E-01 0.231E-04
CGA:  12    -0.343859757178E+03   -0.11584E-02   -0.11580E-02  7488   0.956E-02 0.318E-04
CGA:  13    -0.343860232773E+03   -0.47559E-03   -0.47563E-03  7488   0.708E-02 0.609E-05
CGA:  14    -0.343860556042E+03   -0.32327E-03   -0.32342E-03  7488   0.257E-02 0.762E-05
CGA:  15    -0.343860670606E+03   -0.11456E-03   -0.11464E-03  7488   0.200E-02 0.474E-05
CGA:  16    -0.343860792365E+03   -0.12176E-03   -0.12173E-03  7488   0.243E-02 0.438E-05
CGA:  17    -0.343860921817E+03   -0.12945E-03   -0.12946E-03  7488   0.743E-03 0.114E-05
CGA:  18    -0.343860953595E+03   -0.31778E-04   -0.31780E-04  7488   0.307E-03-0.494E-06
CGA:  19    -0.343860995108E+03   -0.41514E-04   -0.41507E-04  7488   0.607E-03-0.641E-07
CGA:  20    -0.343861031330E+03   -0.36222E-04   -0.36225E-04  7488   0.182E-03-0.210E-05
CGA:  21    -0.343861039342E+03   -0.80116E-05   -0.79974E-05  7488   0.172E-03-0.124E-05
CGA:  22    -0.343861052134E+03   -0.12793E-04   -0.12819E-04  7488   0.199E-03-0.166E-05
CGA:  23    -0.343861061237E+03   -0.91026E-05   -0.90883E-05  7488   0.112E-03-0.134E-05
   7 F= -.34386106E+03 E0= -.34384434E+03  d E =0.371620E-02  mag=    20.0000
       N       E                     dE             d eps       ncg     rms          ort
SDA:   1    -0.340315965885E+03    0.35451E+01    0.00000E+00  7488   0.204E+02 0.000E+00
CGA:   2    -0.341101985868E+03   -0.78602E+00   -0.76755E+00  7488   0.153E+02 0.636E-01
CGA:   3    -0.342047138930E+03   -0.94515E+00   -0.94844E+00  7488   0.182E+02-0.361E+00
CGA:   4    -0.342914293355E+03   -0.86715E+00   -0.86344E+00  7488   0.788E+01-0.131E+00
CGA:   5    -0.343175722747E+03   -0.26143E+00   -0.26369E+00  7488   0.439E+01-0.143E-01
CGA:   6    -0.343566964515E+03   -0.39124E+00   -0.39315E+00  7488   0.424E+01-0.521E-01
CGA:   7    -0.343706512336E+03   -0.13955E+00   -0.13822E+00  7488   0.120E+01 0.124E-01
CGA:   8    -0.343743883160E+03   -0.37371E-01   -0.37410E-01  7488   0.667E+00-0.348E-03
CGA:   9    -0.343782715952E+03   -0.38833E-01   -0.38826E-01  7488   0.481E+00 0.106E-02
CGA:  10    -0.343805027648E+03   -0.22312E-01   -0.22374E-01  7488   0.180E+00 0.258E-02
CGA:  11    -0.343815342846E+03   -0.10315E-01   -0.10308E-01  7488   0.145E+00 0.138E-02
CGA:  12    -0.343820628166E+03   -0.52853E-02   -0.53158E-02  7488   0.618E-01 0.534E-04
CGA:  13    -0.343823287311E+03   -0.26591E-02   -0.26618E-02  7488   0.503E-01 0.747E-04
CGA:  14    -0.343827087015E+03   -0.37997E-02   -0.37893E-02  7488   0.551E-01 0.365E-03
CGA:  15    -0.343829059596E+03   -0.19726E-02   -0.19793E-02  7488   0.106E-01 0.770E-06
CGA:  16    -0.343829605389E+03   -0.54579E-03   -0.54568E-03  7488   0.793E-02-0.272E-04
CGA:  17    -0.343830669726E+03   -0.10643E-02   -0.10549E-02  7488   0.835E-02 0.123E-03
CGA:  18    -0.343830888202E+03   -0.21848E-03   -0.21936E-03  7488   0.249E-02-0.146E-04
CGA:  19    -0.343831067979E+03   -0.17978E-03   -0.17973E-03  7488   0.322E-02 0.133E-05
CGA:  20    -0.343831227286E+03   -0.15931E-03   -0.15933E-03  7488   0.200E-02 0.163E-05
CGA:  21    -0.343831356298E+03   -0.12901E-03   -0.12897E-03  7488   0.187E-02 0.339E-05
CGA:  22    -0.343831472626E+03   -0.11633E-03   -0.11630E-03  7488   0.919E-03 0.215E-05
CGA:  23    -0.343831518927E+03   -0.46301E-04   -0.46293E-04  7488   0.631E-03-0.150E-05
CGA:  24    -0.343831567835E+03   -0.48908E-04   -0.48916E-04  7488   0.117E-02-0.967E-06
CGA:  25    -0.343831620431E+03   -0.52596E-04   -0.52623E-04  7488   0.389E-03 0.418E-06
CGA:  26    -0.343831635502E+03   -0.15072E-04   -0.15077E-04  7488   0.187E-03-0.224E-06
CGA:  27    -0.343831654537E+03   -0.19035E-04   -0.19019E-04  7488   0.332E-03 0.221E-07
CGA:  28    -0.343831669907E+03   -0.15370E-04   -0.15378E-04  7488   0.115E-03 0.297E-06
CGA:  29    -0.343831676679E+03   -0.67716E-05   -0.67712E-05  7488   0.927E-04 0.118E-06
   8 F= -.34383168E+03 E0= -.34381461E+03  d E =0.293846E-01  mag=    20.0000
       N       E                     dE             d eps       ncg     rms          ort
SDA:   1    -0.342209825712E+03    0.16218E+01    0.00000E+00  7488   0.734E+01 0.000E+00
CGA:   2    -0.342541911269E+03   -0.33209E+00   -0.33038E+00  7488   0.977E+01-0.310E-01
CGA:   3    -0.343185854428E+03   -0.64394E+00   -0.64561E+00  7488   0.676E+01-0.118E+00
CGA:   4    -0.343442320742E+03   -0.25647E+00   -0.26193E+00  7488   0.247E+01 0.113E-01
CGA:   5    -0.343655172919E+03   -0.21285E+00   -0.21510E+00  7488   0.288E+01-0.633E-01
CGA:   6    -0.343795692464E+03   -0.14052E+00   -0.14086E+00  7488   0.100E+01 0.155E-01
CGA:   7    -0.343828785317E+03   -0.33093E-01   -0.33063E-01  7488   0.380E+00 0.709E-03
CGA:   8    -0.343853222248E+03   -0.24437E-01   -0.24476E-01  7488   0.327E+00-0.304E-02
CGA:   9    -0.343864432557E+03   -0.11210E-01   -0.11192E-01  7488   0.142E+00 0.181E-03
CGA:  10    -0.343871557195E+03   -0.71246E-02   -0.71310E-02  7488   0.919E-01 0.453E-03
CGA:  11    -0.343876516000E+03   -0.49588E-02   -0.49591E-02  7488   0.231E-01 0.789E-04
CGA:  12    -0.343878054055E+03   -0.15381E-02   -0.15382E-02  7488   0.304E-01-0.889E-05
CGA:  13    -0.343880133442E+03   -0.20794E-02   -0.20795E-02  7488   0.277E-01-0.660E-05
CGA:  14    -0.343880931482E+03   -0.79804E-03   -0.80052E-03  7488   0.434E-02-0.400E-04
CGA:  15    -0.343881183556E+03   -0.25207E-03   -0.25206E-03  7488   0.674E-02 0.407E-05
CGA:  16    -0.343881658016E+03   -0.47446E-03   -0.47410E-03  7488   0.250E-02 0.181E-04
CGA:  17    -0.343881790189E+03   -0.13217E-03   -0.13218E-03  7488   0.153E-02 0.304E-05
CGA:  18    -0.343881883005E+03   -0.92816E-04   -0.92805E-04  7488   0.123E-02 0.160E-05
CGA:  19    -0.343881930048E+03   -0.47043E-04   -0.47050E-04  7488   0.713E-03-0.168E-06
CGA:  20    -0.343881981011E+03   -0.50963E-04   -0.50946E-04  7488   0.947E-03 0.533E-06
CGA:  21    -0.343882029940E+03   -0.48929E-04   -0.48934E-04  7488   0.267E-03 0.796E-06
CGA:  22    -0.343882041943E+03   -0.12003E-04   -0.12010E-04  7488   0.239E-03 0.150E-06
CGA:  23    -0.343882067010E+03   -0.25067E-04   -0.25053E-04  7488   0.250E-03 0.629E-07
CGA:  24    -0.343882076466E+03   -0.94555E-05   -0.94589E-05  7488   0.114E-03-0.232E-06
   9 F= -.34388208E+03 E0= -.34386515E+03  d E =-.503998E-01  mag=    20.0000
       N       E                     dE             d eps       ncg     rms          ort
SDA:   1    -0.343140811580E+03    0.74126E+00    0.00000E+00  7488   0.287E+01 0.000E+00
CGA:   2    -0.343328900274E+03   -0.18809E+00   -0.18901E+00  7488   0.416E+01-0.607E-01
CGA:   3    -0.343600808042E+03   -0.27191E+00   -0.27153E+00  7488   0.270E+01 0.240E-01
CGA:   4    -0.343707282288E+03   -0.10647E+00   -0.10692E+00  7488   0.107E+01 0.209E-02
CGA:   5    -0.343780175683E+03   -0.72893E-01   -0.73166E-01  7488   0.154E+01-0.152E-01
CGA:   6    -0.343840067024E+03   -0.59891E-01   -0.59726E-01  7488   0.489E+00-0.337E-03
CGA:   7    -0.343857633334E+03   -0.17566E-01   -0.17726E-01  7488   0.168E+00-0.250E-03
CGA:   8    -0.343869845110E+03   -0.12212E-01   -0.12260E-01  7488   0.832E-01-0.199E-02
CGA:   9    -0.343874635539E+03   -0.47904E-02   -0.47897E-02  7488   0.415E-01 0.154E-03
CGA:  10    -0.343877850129E+03   -0.32146E-02   -0.32088E-02  7488   0.301E-01 0.208E-03
CGA:  11    -0.343878814424E+03   -0.96429E-03   -0.96384E-03  7488   0.111E-01 0.779E-05
CGA:  12    -0.343879374590E+03   -0.56017E-03   -0.56028E-03  7488   0.115E-01 0.847E-05
CGA:  13    -0.343880311477E+03   -0.93689E-03   -0.93637E-03  7488   0.746E-02 0.153E-04
CGA:  14    -0.343880524774E+03   -0.21330E-03   -0.21379E-03  7488   0.153E-02-0.717E-05
CGA:  15    -0.343880663981E+03   -0.13921E-03   -0.13898E-03  7488   0.212E-02 0.600E-05
CGA:  16    -0.343880811632E+03   -0.14765E-03   -0.14760E-03  7488   0.812E-03 0.341E-05
CGA:  17    -0.343880856912E+03   -0.45280E-04   -0.45281E-04  7488   0.592E-03 0.105E-06
CGA:  18    -0.343880894988E+03   -0.38076E-04   -0.38069E-04  7488   0.307E-03 0.863E-06
CGA:  19    -0.343880908543E+03   -0.13555E-04   -0.13560E-04  7488   0.335E-03 0.544E-07
CGA:  20    -0.343880937295E+03   -0.28752E-04   -0.28754E-04  7488   0.303E-03-0.403E-06
CGA:  21    -0.343880948466E+03   -0.11171E-04   -0.11177E-04  7488   0.106E-03-0.153E-06
CGA:  22    -0.343880953963E+03   -0.54966E-05   -0.54964E-05  7488   0.915E-04-0.188E-06
CGA:  23    -0.343880964176E+03   -0.10213E-04   -0.10219E-04  7488   0.775E-04-0.231E-06
CGA:  24    -0.343880967941E+03   -0.37642E-05   -0.37643E-05  7488   0.279E-04-0.104E-06
  10 F= -.34388097E+03 E0= -.34386440E+03  d E =0.110853E-02  mag=    20.0000
       N       E                     dE             d eps       ncg     rms          ort
SDA:   1    -0.343580074724E+03    0.30089E+00    0.00000E+00  7488   0.191E+01 0.000E+00
CGA:   2    -0.343641121686E+03   -0.61047E-01   -0.61669E-01  7488   0.131E+01-0.723E-02
CGA:   3    -0.343731618026E+03   -0.90496E-01   -0.90511E-01  7488   0.158E+01-0.946E-03
CGA:   4    -0.343817789703E+03   -0.86172E-01   -0.86120E-01  7488   0.392E+00-0.408E-02
CGA:   5    -0.343845602748E+03   -0.27813E-01   -0.27771E-01  7488   0.536E+00 0.241E-02
CGA:   6    -0.343874705970E+03   -0.29103E-01   -0.29086E-01  7488   0.181E+00-0.112E-02
CGA:   7    -0.343880658529E+03   -0.59526E-02   -0.58925E-02  7488   0.798E-01 0.766E-03
CGA:   8    -0.343885290592E+03   -0.46321E-02   -0.46322E-02  7488   0.486E-01 0.139E-03
CGA:   9    -0.343887112245E+03   -0.18217E-02   -0.18225E-02  7488   0.240E-01 0.950E-05
CGA:  10    -0.343888519459E+03   -0.14072E-02   -0.14072E-02  7488   0.144E-01-0.281E-05
CGA:  11    -0.343889388569E+03   -0.86911E-03   -0.86911E-03  7488   0.487E-02 0.192E-05
CGA:  12    -0.343889581026E+03   -0.19246E-03   -0.19246E-03  7488   0.433E-02 0.236E-05
CGA:  13    -0.343889914638E+03   -0.33361E-03   -0.33348E-03  7488   0.463E-02 0.678E-05
CGA:  14    -0.343890106003E+03   -0.19137E-03   -0.19148E-03  7488   0.830E-03 0.251E-05
CGA:  15    -0.343890148493E+03   -0.42490E-04   -0.42487E-04  7488   0.766E-03-0.611E-06
CGA:  16    -0.343890206947E+03   -0.58454E-04   -0.58445E-04  7488   0.893E-03 0.443E-06
CGA:  17    -0.343890241668E+03   -0.34721E-04   -0.34747E-04  7488   0.269E-03 0.215E-06
CGA:  18    -0.343890255340E+03   -0.13672E-04   -0.13673E-04  7488   0.272E-03 0.124E-06
CGA:  19    -0.343890269233E+03   -0.13893E-04   -0.13894E-04  7488   0.104E-03 0.124E-06
CGA:  20    -0.343890277470E+03   -0.82369E-05   -0.82271E-05  7488   0.163E-03 0.311E-06
CGA:  21    -0.343890288382E+03   -0.10912E-04   -0.10910E-04  7488   0.905E-04 0.159E-06
CGA:  22    -0.343890291186E+03   -0.28037E-05   -0.28031E-05  7488   0.394E-04-0.131E-06
  11 F= -.34389029E+03 E0= -.34387350E+03  d E =-.932325E-02  mag=    20.0000
       N       E                     dE             d eps       ncg     rms          ort
SDA:   1    -0.343839794219E+03    0.50494E-01    0.00000E+00  7488   0.332E+00 0.000E+00
CGA:   2    -0.343849517455E+03   -0.97232E-02   -0.97238E-02  7488   0.208E+00 0.313E-04
CGA:   3    -0.343870764653E+03   -0.21247E-01   -0.21278E-01  7488   0.328E+00-0.610E-03
CGA:   4    -0.343882997939E+03   -0.12233E-01   -0.12209E-01  7488   0.833E-01 0.807E-04
CGA:   5    -0.343886921240E+03   -0.39233E-02   -0.39227E-02  7488   0.608E-01-0.127E-04
CGA:   6    -0.343891424109E+03   -0.45029E-02   -0.45056E-02  7488   0.500E-01-0.116E-03
CGA:   7    -0.343893448421E+03   -0.20243E-02   -0.20241E-02  7488   0.821E-02-0.120E-04
CGA:   8    -0.343893871417E+03   -0.42300E-03   -0.42305E-03  7488   0.852E-02 0.650E-05
CGA:   9    -0.343894287914E+03   -0.41650E-03   -0.41649E-03  7488   0.542E-02 0.156E-05
CGA:  10    -0.343894508043E+03   -0.22013E-03   -0.22005E-03  7488   0.166E-02-0.294E-05
CGA:  11    -0.343894631670E+03   -0.12363E-03   -0.12372E-03  7488   0.125E-02-0.425E-05
CGA:  12    -0.343894686341E+03   -0.54671E-04   -0.54662E-04  7488   0.679E-03-0.885E-06
CGA:  13    -0.343894729609E+03   -0.43268E-04   -0.43285E-04  7488   0.863E-03-0.198E-05
CGA:  14    -0.343894770750E+03   -0.41141E-04   -0.41113E-04  7488   0.222E-03-0.361E-05
CGA:  15    -0.343894777832E+03   -0.70815E-05   -0.70702E-05  7488   0.131E-03-0.488E-06
CGA:  16    -0.343894796468E+03   -0.18637E-04   -0.18645E-04  7488   0.192E-03-0.116E-06
CGA:  17    -0.343894806623E+03   -0.10155E-04   -0.10151E-04  7488   0.723E-04-0.548E-06
CGA:  18    -0.343894809341E+03   -0.27182E-05   -0.27180E-05  7488   0.569E-04-0.186E-07
  12 F= -.34389481E+03 E0= -.34387801E+03  d E =-.451816E-02  mag=    20.0000
       N       E                     dE             d eps       ncg     rms          ort
SDA:   1    -0.342821811420E+03    0.10730E+01    0.00000E+00  7488   0.313E+01 0.000E+00
CGA:   2    -0.343250190573E+03   -0.42838E+00   -0.43545E+00  7488   0.105E+02-0.945E-01
CGA:   3    -0.343625961506E+03   -0.37577E+00   -0.37940E+00  7488   0.246E+01-0.182E-01
CGA:   4    -0.343706081992E+03   -0.80120E-01   -0.83141E-01  7488   0.137E+01-0.340E-01
CGA:   5    -0.343847236047E+03   -0.14115E+00   -0.14186E+00  7488   0.102E+01-0.149E-01
CGA:   6    -0.343879645697E+03   -0.32410E-01   -0.32142E-01  7488   0.282E+00 0.414E-02
CGA:   7    -0.343895181327E+03   -0.15536E-01   -0.15563E-01  7488   0.183E+00 0.168E-02
CGA:   8    -0.343904118344E+03   -0.89370E-02   -0.89259E-02  7488   0.823E-01-0.207E-03
CGA:   9    -0.343908700199E+03   -0.45819E-02   -0.45823E-02  7488   0.965E-01 0.475E-04
CGA:  10    -0.343912606716E+03   -0.39065E-02   -0.39051E-02  7488   0.262E-01-0.325E-05
CGA:  11    -0.343913903074E+03   -0.12964E-02   -0.12962E-02  7488   0.114E-01-0.759E-05
CGA:  12    -0.343915322801E+03   -0.14197E-02   -0.14196E-02  7488   0.151E-01 0.263E-05
CGA:  13    -0.343915865518E+03   -0.54272E-03   -0.54274E-03  7488   0.461E-02-0.795E-05
CGA:  14    -0.343916026763E+03   -0.16125E-03   -0.16115E-03  7488   0.302E-02-0.197E-05
CGA:  15    -0.343916406393E+03   -0.37963E-03   -0.37974E-03  7488   0.411E-02-0.181E-05
CGA:  16    -0.343916600411E+03   -0.19402E-03   -0.19416E-03  7488   0.149E-02 0.355E-05
CGA:  17    -0.343916684194E+03   -0.83783E-04   -0.83799E-04  7488   0.175E-02 0.204E-05
CGA:  18    -0.343916793870E+03   -0.10968E-03   -0.10967E-03  7488   0.134E-02 0.200E-05
CGA:  19    -0.343916869134E+03   -0.75265E-04   -0.75278E-04  7488   0.156E-02 0.217E-05
CGA:  20    -0.343916971988E+03   -0.10285E-03   -0.10284E-03  7488   0.940E-03 0.323E-05
CGA:  21    -0.343917004083E+03   -0.32094E-04   -0.32121E-04  7488   0.318E-03 0.514E-06
CGA:  22    -0.343917046708E+03   -0.42626E-04   -0.42489E-04  7488   0.693E-03 0.184E-05
CGA:  23    -0.343917082838E+03   -0.36130E-04   -0.36163E-04  7488   0.314E-03 0.259E-05
CGA:  24    -0.343917091649E+03   -0.88106E-05   -0.88390E-05  7488   0.102E-03 0.707E-06
CGA:  25    -0.343917102104E+03   -0.10455E-04   -0.10438E-04  7488   0.140E-03 0.340E-06
CGA:  26    -0.343917112449E+03   -0.10345E-04   -0.10344E-04  7488   0.881E-04 0.398E-07
CGA:  27    -0.343917116219E+03   -0.37699E-05   -0.37732E-05  7488   0.670E-04 0.118E-06
  13 F= -.34391712E+03 E0= -.34390040E+03  d E =-.223069E-01  mag=    20.0000
       N       E                     dE             d eps       ncg     rms          ort
SDA:   1    -0.341220227959E+03    0.26969E+01    0.00000E+00  7488   0.801E+01 0.000E+00
CGA:   2    -0.342118643286E+03   -0.89842E+00   -0.87818E+00  7488   0.199E+02 0.386E+00
CGA:   3    -0.343235630527E+03   -0.11170E+01   -0.11134E+01  7488   0.565E+01-0.492E-01
CGA:   4    -0.343450140238E+03   -0.21451E+00   -0.20907E+00  7488   0.328E+01 0.637E-01
CGA:   5    -0.343741511312E+03   -0.29137E+00   -0.28797E+00  7488   0.345E+01 0.108E+00
CGA:   6    -0.343844743882E+03   -0.10323E+00   -0.10119E+00  7488   0.810E+00 0.519E-01
CGA:   7    -0.343876625521E+03   -0.31882E-01   -0.31627E-01  7488   0.395E+00 0.153E-02
CGA:   8    -0.343910075389E+03   -0.33450E-01   -0.33264E-01  7488   0.248E+00 0.620E-02
CGA:   9    -0.343920244423E+03   -0.10169E-01   -0.10091E-01  7488   0.140E+00 0.208E-03
CGA:  10    -0.343926994239E+03   -0.67498E-02   -0.67543E-02  7488   0.107E+00 0.108E-03
CGA:  11    -0.343931233895E+03   -0.42397E-02   -0.42616E-02  7488   0.370E-01-0.162E-04
CGA:  12    -0.343933354651E+03   -0.21208E-02   -0.21209E-02  7488   0.470E-01 0.299E-04
CGA:  13    -0.343936015880E+03   -0.26612E-02   -0.26616E-02  7488   0.164E-01 0.696E-04
CGA:  14    -0.343936650073E+03   -0.63419E-03   -0.63635E-03  7488   0.617E-02-0.296E-05
CGA:  15    -0.343937308486E+03   -0.65841E-03   -0.65810E-03  7488   0.141E-01 0.550E-05
CGA:  16    -0.343937863058E+03   -0.55457E-03   -0.55542E-03  7488   0.599E-02 0.262E-05
CGA:  17    -0.343938094453E+03   -0.23139E-03   -0.23218E-03  7488   0.229E-02 0.120E-06
CGA:  18    -0.343938335796E+03   -0.24134E-03   -0.24141E-03  7488   0.374E-02-0.177E-05
CGA:  19    -0.343938523505E+03   -0.18771E-03   -0.18790E-03  7488   0.245E-02 0.806E-05
CGA:  20    -0.343938682475E+03   -0.15897E-03   -0.15892E-03  7488   0.239E-02 0.804E-05
CGA:  21    -0.343938812661E+03   -0.13019E-03   -0.13020E-03  7488   0.925E-03 0.218E-05
CGA:  22    -0.343938858540E+03   -0.45879E-04   -0.45895E-04  7488   0.115E-02 0.860E-06
CGA:  23    -0.343938941349E+03   -0.82809E-04   -0.82786E-04  7488   0.128E-02 0.144E-05
CGA:  24    -0.343938999757E+03   -0.58408E-04   -0.58424E-04  7488   0.244E-03 0.108E-05
CGA:  25    -0.343939017881E+03   -0.18124E-04   -0.18110E-04  7488   0.323E-03 0.719E-06
CGA:  26    -0.343939043983E+03   -0.26102E-04   -0.26068E-04  7488   0.310E-03 0.161E-05
CGA:  27    -0.343939055151E+03   -0.11168E-04   -0.11197E-04  7488   0.119E-03 0.100E-05
CGA:  28    -0.343939062945E+03   -0.77940E-05   -0.77907E-05  7488   0.133E-03 0.461E-06
  14 F= -.34393906E+03 E0= -.34392234E+03  d E =-.219467E-01  mag=    20.0000
       N       E                     dE             d eps       ncg     rms          ort
SDA:   1    -0.343546288154E+03    0.39277E+00    0.00000E+00  7488   0.204E+01 0.000E+00
CGA:   2    -0.343628142585E+03   -0.81854E-01   -0.80764E-01  7488   0.157E+01 0.535E-03
CGA:   3    -0.343789933807E+03   -0.16179E+00   -0.16217E+00  7488   0.182E+01-0.782E-02
CGA:   4    -0.343848757798E+03   -0.58824E-01   -0.59885E-01  7488   0.562E+00-0.127E-01
CGA:   5    -0.343881493232E+03   -0.32735E-01   -0.32732E-01  7488   0.637E+00-0.188E-02
CGA:   6    -0.343912440716E+03   -0.30947E-01   -0.30912E-01  7488   0.392E+00-0.845E-03
CGA:   7    -0.343927771810E+03   -0.15331E-01   -0.15417E-01  7488   0.500E-01 0.272E-04
CGA:   8    -0.343932620546E+03   -0.48487E-02   -0.48560E-02  7488   0.657E-01-0.163E-03
CGA:   9    -0.343935893741E+03   -0.32732E-02   -0.32739E-02  7488   0.166E-01 0.341E-04
CGA:  10    -0.343936599665E+03   -0.70592E-03   -0.70595E-03  7488   0.146E-01 0.752E-05
CGA:  11    -0.343937342016E+03   -0.74235E-03   -0.74235E-03  7488   0.728E-02 0.206E-05
CGA:  12    -0.343937735073E+03   -0.39306E-03   -0.39306E-03  7488   0.576E-02-0.147E-05
CGA:  13    -0.343938098198E+03   -0.36313E-03   -0.36316E-03  7488   0.423E-02-0.437E-05
CGA:  14    -0.343938250376E+03   -0.15218E-03   -0.15231E-03  7488   0.843E-03-0.592E-06
CGA:  15    -0.343938327427E+03   -0.77051E-04   -0.76999E-04  7488   0.151E-02 0.134E-05
CGA:  16    -0.343938419796E+03   -0.92368E-04   -0.92365E-04  7488   0.117E-02 0.107E-05
CGA:  17    -0.343938456979E+03   -0.37183E-04   -0.37202E-04  7488   0.309E-03 0.567E-06
CGA:  18    -0.343938474260E+03   -0.17282E-04   -0.17282E-04  7488   0.302E-03 0.175E-06
CGA:  19    -0.343938518015E+03   -0.43755E-04   -0.43693E-04  7488   0.318E-03 0.605E-06
CGA:  20    -0.343938530468E+03   -0.12453E-04   -0.12465E-04  7488   0.173E-03 0.322E-06
CGA:  21    -0.343938540237E+03   -0.97693E-05   -0.97725E-05  7488   0.177E-03 0.589E-06
  15 F= -.34393854E+03 E0= -.34392189E+03  d E =0.522708E-03  mag=    20.0000
       N       E                     dE             d eps       ncg     rms          ort
SDA:   1    -0.343921998052E+03    0.16532E-01    0.00000E+00  7488   0.341E+00 0.000E+00
CGA:   2    -0.343928473212E+03   -0.64752E-02   -0.65381E-02  7488   0.418E-01-0.250E-02
CGA:   3    -0.343931730686E+03   -0.32575E-02   -0.32561E-02  7488   0.667E-01 0.550E-04
CGA:   4    -0.343934953850E+03   -0.32232E-02   -0.32238E-02  7488   0.332E-01 0.244E-04
CGA:   5    -0.343936832859E+03   -0.18790E-02   -0.18789E-02  7488   0.258E-01-0.172E-04
CGA:   6    -0.343938178234E+03   -0.13454E-02   -0.13449E-02  7488   0.796E-02-0.267E-04
CGA:   7    -0.343938621261E+03   -0.44303E-03   -0.44304E-03  7488   0.635E-02 0.309E-05
CGA:   8    -0.343938958833E+03   -0.33757E-03   -0.33759E-03  7488   0.481E-02 0.245E-05
CGA:   9    -0.343939112719E+03   -0.15389E-03   -0.15386E-03  7488   0.885E-03 0.168E-05
CGA:  10    -0.343939157395E+03   -0.44676E-04   -0.44677E-04  7488   0.614E-03 0.388E-06
CGA:  11    -0.343939216521E+03   -0.59126E-04   -0.59133E-04  7488   0.477E-03-0.151E-06
CGA:  12    -0.343939230803E+03   -0.14283E-04   -0.14270E-04  7488   0.130E-03-0.488E-06
CGA:  13    -0.343939238692E+03   -0.78888E-05   -0.78895E-05  7488   0.157E-03-0.133E-06
CGA:  14    -0.343939249137E+03   -0.10445E-04   -0.10442E-04  7488   0.129E-03 0.338E-06
CGA:  15    -0.343939253472E+03   -0.43353E-05   -0.43417E-05  7488   0.358E-04 0.260E-06
  16 F= -.34393925E+03 E0= -.34392262E+03  d E =-.713235E-03  mag=    20.0000
       N       E                     dE             d eps       ncg     rms          ort
SDA:   1    -0.343905773733E+03    0.33475E-01    0.00000E+00  7488   0.141E+00 0.000E+00
CGA:   2    -0.343911768794E+03   -0.59951E-02   -0.60052E-02  7488   0.164E+00 0.123E-03
CGA:   3    -0.343926506572E+03   -0.14738E-01   -0.14743E-01  7488   0.225E+00-0.119E-03
CGA:   4    -0.343934723503E+03   -0.82169E-02   -0.82149E-02  7488   0.402E-01 0.249E-04
CGA:   5    -0.343936776093E+03   -0.20526E-02   -0.20530E-02  7488   0.346E-01 0.438E-04
CGA:   6    -0.343939131592E+03   -0.23555E-02   -0.23553E-02  7488   0.210E-01 0.234E-04
CGA:   7    -0.343939875762E+03   -0.74417E-03   -0.74410E-03  7488   0.444E-02 0.725E-05
CGA:   8    -0.343940208091E+03   -0.33233E-03   -0.33217E-03  7488   0.359E-02 0.647E-05
CGA:   9    -0.343940363203E+03   -0.15511E-03   -0.15504E-03  7488   0.201E-02-0.197E-05
CGA:  10    -0.343940451480E+03   -0.88278E-04   -0.88245E-04  7488   0.157E-02-0.230E-05
CGA:  11    -0.343940534719E+03   -0.83239E-04   -0.83231E-04  7488   0.394E-03-0.253E-05
CGA:  12    -0.343940556867E+03   -0.22148E-04   -0.22148E-04  7488   0.310E-03 0.590E-06
CGA:  13    -0.343940581521E+03   -0.24654E-04   -0.24629E-04  7488   0.332E-03 0.102E-05
CGA:  14    -0.343940593558E+03   -0.12038E-04   -0.12051E-04  7488   0.608E-04 0.527E-06
CGA:  15    -0.343940596655E+03   -0.30963E-05   -0.30974E-05  7488   0.580E-04 0.197E-06
  17 F= -.34394060E+03 E0= -.34392396E+03  d E =-.134318E-02  mag=    20.0000
       N       E                     dE             d eps       ncg     rms          ort
SDA:   1    -0.342834486910E+03    0.11061E+01    0.00000E+00  7488   0.453E+01 0.000E+00
CGA:   2    -0.343001519205E+03   -0.16703E+00   -0.16611E+00  7488   0.507E+01 0.461E-02
CGA:   3    -0.343616126232E+03   -0.61461E+00   -0.62003E+00  7488   0.504E+01-0.101E+00
CGA:   4    -0.343769173764E+03   -0.15305E+00   -0.15562E+00  7488   0.118E+01-0.331E-01
CGA:   5    -0.343838804459E+03   -0.69631E-01   -0.69664E-01  7488   0.122E+01-0.910E-02
CGA:   6    -0.343910393378E+03   -0.71589E-01   -0.71589E-01  7488   0.521E+00 0.142E-03
CGA:   7    -0.343928751108E+03   -0.18358E-01   -0.18580E-01  7488   0.108E+00-0.116E-02
CGA:   8    -0.343937206597E+03   -0.84555E-02   -0.84487E-02  7488   0.159E+00 0.252E-03
CGA:   9    -0.343943364373E+03   -0.61578E-02   -0.61539E-02  7488   0.762E-01 0.205E-04
CGA:  10    -0.343946242127E+03   -0.28778E-02   -0.28857E-02  7488   0.226E-01-0.158E-05
CGA:  11    -0.343948247429E+03   -0.20053E-02   -0.20104E-02  7488   0.133E-01-0.141E-03
CGA:  12    -0.343949008896E+03   -0.76147E-03   -0.76146E-03  7488   0.134E-01 0.267E-04
CGA:  13    -0.343949691584E+03   -0.68269E-03   -0.68273E-03  7488   0.794E-02-0.294E-05
CGA:  14    -0.343949976277E+03   -0.28469E-03   -0.28544E-03  7488   0.203E-02-0.101E-04
CGA:  15    -0.343950069802E+03   -0.93524E-04   -0.93541E-04  7488   0.219E-02-0.214E-05
CGA:  16    -0.343950290265E+03   -0.22046E-03   -0.22015E-03  7488   0.190E-02 0.393E-05
CGA:  17    -0.343950358581E+03   -0.68316E-04   -0.68356E-04  7488   0.390E-03-0.210E-05
CGA:  18    -0.343950388057E+03   -0.29476E-04   -0.29434E-04  7488   0.647E-03 0.895E-06
CGA:  19    -0.343950429076E+03   -0.41019E-04   -0.41009E-04  7488   0.761E-03 0.642E-06
CGA:  20    -0.343950462629E+03   -0.33553E-04   -0.33608E-04  7488   0.224E-03 0.907E-06
CGA:  21    -0.343950476413E+03   -0.13784E-04   -0.13777E-04  7488   0.179E-03 0.612E-06
CGA:  22    -0.343950486983E+03   -0.10571E-04   -0.10569E-04  7488   0.135E-03 0.458E-06
CGA:  23    -0.343950494539E+03   -0.75557E-05   -0.75567E-05  7488   0.134E-03 0.206E-06
  18 F= -.34395049E+03 E0= -.34393388E+03  d E =-.989788E-02  mag=    20.0000
       N       E                     dE             d eps       ncg     rms          ort
SDA:   1    -0.341786191876E+03    0.21643E+01    0.00000E+00  7488   0.677E+01 0.000E+00
CGA:   2    -0.342225688255E+03   -0.43950E+00   -0.43850E+00  7488   0.159E+02 0.870E-01
CGA:   3    -0.343413656281E+03   -0.11880E+01   -0.11920E+01  7488   0.464E+01-0.222E+00
CGA:   4    -0.343611868535E+03   -0.19821E+00   -0.19910E+00  7488   0.264E+01 0.151E-01
CGA:   5    -0.343787555509E+03   -0.17569E+00   -0.17602E+00  7488   0.317E+01-0.251E-01
CGA:   6    -0.343904175674E+03   -0.11662E+00   -0.11656E+00  7488   0.446E+00 0.690E-03
CGA:   7    -0.343920120416E+03   -0.15945E-01   -0.15852E-01  7488   0.330E+00 0.565E-03
CGA:   8    -0.343943678911E+03   -0.23558E-01   -0.23502E-01  7488   0.282E+00 0.269E-02
CGA:   9    -0.343955902704E+03   -0.12224E-01   -0.12214E-01  7488   0.599E-01-0.108E-03
CGA:  10    -0.343958985414E+03   -0.30827E-02   -0.30846E-02  7488   0.615E-01 0.163E-03
CGA:  11    -0.343962301986E+03   -0.33166E-02   -0.33166E-02  7488   0.526E-01-0.239E-05
CGA:  12    -0.343964556206E+03   -0.22542E-02   -0.22601E-02  7488   0.159E-01 0.868E-04
CGA:  13    -0.343965522048E+03   -0.96584E-03   -0.96600E-03  7488   0.116E-01-0.196E-04
CGA:  14    -0.343966001980E+03   -0.47993E-03   -0.48056E-03  7488   0.569E-02 0.242E-05
CGA:  15    -0.343966321833E+03   -0.31985E-03   -0.31984E-03  7488   0.638E-02 0.207E-05
CGA:  16    -0.343966735696E+03   -0.41386E-03   -0.41342E-03  7488   0.367E-02 0.283E-04
CGA:  17    -0.343966851964E+03   -0.11627E-03   -0.11631E-03  7488   0.103E-02-0.128E-05
CGA:  18    -0.343966933159E+03   -0.81195E-04   -0.81054E-04  7488   0.177E-02 0.377E-05
CGA:  19    -0.343967077310E+03   -0.14415E-03   -0.14405E-03  7488   0.131E-02 0.330E-05
CGA:  20    -0.343967117216E+03   -0.39906E-04   -0.40031E-04  7488   0.468E-03-0.727E-07
CGA:  21    -0.343967150057E+03   -0.32840E-04   -0.32810E-04  7488   0.596E-03 0.134E-05
CGA:  22    -0.343967196157E+03   -0.46101E-04   -0.46029E-04  7488   0.351E-03 0.265E-05
CGA:  23    -0.343967212738E+03   -0.16580E-04   -0.16594E-04  7488   0.297E-03 0.951E-06
CGA:  24    -0.343967227036E+03   -0.14298E-04   -0.14313E-04  7488   0.145E-03 0.103E-05
CGA:  25    -0.343967235052E+03   -0.80160E-05   -0.80171E-05  7488   0.116E-03 0.552E-06
  19 F= -.34396724E+03 E0= -.34395060E+03  d E =-.167405E-01  mag=    20.0000
       N       E                     dE             d eps       ncg     rms          ort
SDA:   1    -0.343656232185E+03    0.31099E+00    0.00000E+00  7488   0.179E+01 0.000E+00
CGA:   2    -0.343720325583E+03   -0.64093E-01   -0.65003E-01  7488   0.136E+01-0.210E-02
CGA:   3    -0.343823340801E+03   -0.10302E+00   -0.10313E+00  7488   0.161E+01-0.414E-02
CGA:   4    -0.343885503169E+03   -0.62162E-01   -0.61507E-01  7488   0.484E+00-0.748E-03
CGA:   5    -0.343914760995E+03   -0.29258E-01   -0.29243E-01  7488   0.548E+00 0.188E-02
CGA:   6    -0.343946006282E+03   -0.31245E-01   -0.31243E-01  7488   0.227E+00 0.106E-02
CGA:   7    -0.343955621956E+03   -0.96157E-02   -0.95707E-02  7488   0.932E-01-0.507E-03
CGA:   8    -0.343961170512E+03   -0.55486E-02   -0.55497E-02  7488   0.619E-01-0.128E-03
CGA:   9    -0.343963138598E+03   -0.19681E-02   -0.19679E-02  7488   0.240E-01 0.172E-04
CGA:  10    -0.343964621046E+03   -0.14824E-02   -0.14826E-02  7488   0.206E-01-0.121E-04
CGA:  11    -0.343965731061E+03   -0.11100E-02   -0.11100E-02  7488   0.460E-02 0.676E-05
CGA:  12    -0.343965945345E+03   -0.21428E-03   -0.21431E-03  7488   0.445E-02 0.200E-05
CGA:  13    -0.343966293495E+03   -0.34815E-03   -0.34808E-03  7488   0.500E-02 0.339E-05
CGA:  14    -0.343966490908E+03   -0.19741E-03   -0.19750E-03  7488   0.150E-02 0.195E-05
CGA:  15    -0.343966546231E+03   -0.55323E-04   -0.55344E-04  7488   0.817E-03 0.151E-05
CGA:  16    -0.343966609585E+03   -0.63354E-04   -0.63290E-04  7488   0.745E-03 0.257E-05
CGA:  17    -0.343966650585E+03   -0.41000E-04   -0.41000E-04  7488   0.344E-03 0.123E-05
CGA:  18    -0.343966671502E+03   -0.20917E-04   -0.20916E-04  7488   0.397E-03 0.340E-07
CGA:  19    -0.343966686306E+03   -0.14804E-04   -0.14808E-04  7488   0.107E-03 0.188E-06
CGA:  20    -0.343966693168E+03   -0.68618E-05   -0.68587E-05  7488   0.139E-03 0.259E-06
CGA:  21    -0.343966704432E+03   -0.11265E-04   -0.11274E-04  7488   0.109E-03-0.441E-06
CGA:  22    -0.343966708299E+03   -0.38665E-05   -0.38571E-05  7488   0.358E-04-0.582E-06
  20 F= -.34396671E+03 E0= -.34394996E+03  d E =0.526753E-03  mag=    20.0000
       N       E                     dE             d eps       ncg     rms          ort
SDA:   1    -0.343884349659E+03    0.82355E-01    0.00000E+00  7488   0.556E+00 0.000E+00
CGA:   2    -0.343902056543E+03   -0.17707E-01   -0.17425E-01  7488   0.297E+00 0.342E-02
CGA:   3    -0.343924868819E+03   -0.22812E-01   -0.22801E-01  7488   0.498E+00 0.489E-03
CGA:   4    -0.343946571983E+03   -0.21703E-01   -0.21773E-01  7488   0.125E+00 0.129E-02
CGA:   5    -0.343954581888E+03   -0.80099E-02   -0.80208E-02  7488   0.887E-01-0.801E-03
CGA:   6    -0.343963469145E+03   -0.88873E-02   -0.88857E-02  7488   0.301E-01 0.276E-04
CGA:   7    -0.343964692575E+03   -0.12234E-02   -0.12239E-02  7488   0.112E-01-0.187E-05
CGA:   8    -0.343965428769E+03   -0.73619E-03   -0.73613E-03  7488   0.170E-01 0.828E-05
CGA:   9    -0.343966071872E+03   -0.64310E-03   -0.64309E-03  7488   0.327E-02 0.503E-05
CGA:  10    -0.343966239259E+03   -0.16739E-03   -0.16738E-03  7488   0.175E-02-0.551E-06
CGA:  11    -0.343966392968E+03   -0.15371E-03   -0.15374E-03  7488   0.110E-02-0.506E-06
CGA:  12    -0.343966462639E+03   -0.69671E-04   -0.69681E-04  7488   0.119E-02-0.184E-05
CGA:  13    -0.343966511950E+03   -0.49311E-04   -0.49278E-04  7488   0.536E-03-0.202E-05
CGA:  14    -0.343966531335E+03   -0.19385E-04   -0.19375E-04  7488   0.167E-03-0.556E-06
CGA:  15    -0.343966545155E+03   -0.13820E-04   -0.13821E-04  7488   0.296E-03-0.325E-07
CGA:  16    -0.343966560904E+03   -0.15749E-04   -0.15745E-04  7488   0.108E-03-0.822E-06
CGA:  17    -0.343966565363E+03   -0.44598E-05   -0.44545E-05  7488   0.372E-04-0.357E-06
  21 F= -.34396657E+03 E0= -.34394988E+03  d E =0.142935E-03  mag=    20.0000
       N       E                     dE             d eps       ncg     rms          ort
SDA:   1    -0.343912315374E+03    0.54246E-01    0.00000E+00  7488   0.587E+00 0.000E+00
CGA:   2    -0.343924576286E+03   -0.12261E-01   -0.12035E-01  7488   0.139E+00 0.820E-02
CGA:   3    -0.343939360964E+03   -0.14785E-01   -0.14836E-01  7488   0.341E+00-0.102E-02
CGA:   4    -0.343958517236E+03   -0.19156E-01   -0.19163E-01  7488   0.628E-01 0.125E-02
CGA:   5    -0.343961470153E+03   -0.29529E-02   -0.29536E-02  7488   0.513E-01 0.814E-05
CGA:   6    -0.343964071818E+03   -0.26017E-02   -0.26003E-02  7488   0.505E-01-0.706E-04
CGA:   7    -0.343966196377E+03   -0.21246E-02   -0.21256E-02  7488   0.674E-02-0.984E-05
CGA:   8    -0.343966517376E+03   -0.32100E-03   -0.32108E-03  7488   0.553E-02 0.141E-05
CGA:   9    -0.343966871362E+03   -0.35399E-03   -0.35399E-03  7488   0.366E-02 0.446E-06
CGA:  10    -0.343967023731E+03   -0.15237E-03   -0.15232E-03  7488   0.168E-02-0.370E-06
CGA:  11    -0.343967115098E+03   -0.91368E-04   -0.91363E-04  7488   0.134E-02-0.210E-05
CGA:  12    -0.343967159411E+03   -0.44312E-04   -0.44276E-04  7488   0.472E-03-0.213E-05
CGA:  13    -0.343967193380E+03   -0.33969E-04   -0.34017E-04  7488   0.445E-03-0.272E-05
CGA:  14    -0.343967224668E+03   -0.31287E-04   -0.31314E-04  7488   0.174E-03-0.190E-05
CGA:  15    -0.343967231210E+03   -0.65428E-05   -0.65393E-05  7488   0.686E-04-0.181E-06
  22 F= -.34396723E+03 E0= -.34395057E+03  d E =-.665847E-03  mag=    20.0000
       N       E                     dE             d eps       ncg     rms          ort
SDA:   1    -0.338440389042E+03    0.55268E+01    0.00000E+00  7488   0.144E+02 0.000E+00
CGA:   2    -0.340682284141E+03   -0.22419E+01   -0.23338E+01  7488   0.559E+02-0.101E+01
CGA:   3    -0.342758496190E+03   -0.20762E+01   -0.20951E+01  7488   0.888E+01 0.357E+00
CGA:   4    -0.343138423622E+03   -0.37993E+00   -0.38987E+00  7488   0.617E+01 0.658E-01
CGA:   5    -0.343687467588E+03   -0.54904E+00   -0.55416E+00  7488   0.427E+01-0.148E+00
CGA:   6    -0.343817686208E+03   -0.13022E+00   -0.12987E+00  7488   0.101E+01 0.592E-02
CGA:   7    -0.343855542093E+03   -0.37856E-01   -0.38255E-01  7488   0.692E+00-0.101E-02
CGA:   8    -0.343908575595E+03   -0.53034E-01   -0.52957E-01  7488   0.684E+00 0.312E-02
CGA:   9    -0.343930660324E+03   -0.22085E-01   -0.22020E-01  7488   0.194E+00 0.970E-03
CGA:  10    -0.343939089248E+03   -0.84289E-02   -0.84581E-02  7488   0.118E+00 0.353E-03
CGA:  11    -0.343948145039E+03   -0.90558E-02   -0.90630E-02  7488   0.727E-01-0.285E-03
CGA:  12    -0.343951931439E+03   -0.37864E-02   -0.37870E-02  7488   0.609E-01 0.316E-04
CGA:  13    -0.343954531969E+03   -0.26005E-02   -0.26055E-02  7488   0.297E-01 0.411E-04
CGA:  14    -0.343955656294E+03   -0.11243E-02   -0.11284E-02  7488   0.114E-01-0.818E-05
CGA:  15    -0.343956431071E+03   -0.77478E-03   -0.77475E-03  7488   0.159E-01-0.816E-06
CGA:  16    -0.343957543544E+03   -0.11125E-02   -0.11110E-02  7488   0.946E-02 0.803E-04
CGA:  17    -0.343957818331E+03   -0.27479E-03   -0.27557E-03  7488   0.196E-02-0.105E-04
CGA:  18    -0.343958085054E+03   -0.26672E-03   -0.26563E-03  7488   0.708E-02 0.137E-04
CGA:  19    -0.343958393408E+03   -0.30835E-03   -0.30861E-03  7488   0.238E-02 0.838E-05
CGA:  20    -0.343958495030E+03   -0.10162E-03   -0.10170E-03  7488   0.122E-02 0.316E-05
CGA:  21    -0.343958595805E+03   -0.10077E-03   -0.10066E-03  7488   0.107E-02 0.440E-05
CGA:  22    -0.343958654043E+03   -0.58239E-04   -0.58268E-04  7488   0.125E-02 0.440E-05
CGA:  23    -0.343958723438E+03   -0.69394E-04   -0.69421E-04  7488   0.850E-03 0.585E-05
CGA:  24    -0.343958765908E+03   -0.42470E-04   -0.42518E-04  7488   0.269E-03 0.420E-05
CGA:  25    -0.343958778197E+03   -0.12289E-04   -0.12314E-04  7488   0.235E-03 0.169E-05
CGA:  26    -0.343958802135E+03   -0.23938E-04   -0.23789E-04  7488   0.422E-03 0.338E-05
CGA:  27    -0.343958820055E+03   -0.17921E-04   -0.17960E-04  7488   0.980E-04 0.172E-05
CGA:  28    -0.343958824000E+03   -0.39448E-05   -0.39430E-05  7488   0.798E-04-0.238E-06
  23 F= -.34395882E+03 E0= -.34394221E+03  d E =0.840721E-02  mag=    20.0000
       N       E                     dE             d eps       ncg     rms          ort
SDA:   1    -0.342567887256E+03    0.13909E+01    0.00000E+00  7488   0.411E+01 0.000E+00
CGA:   2    -0.342937032937E+03   -0.36915E+00   -0.37659E+00  7488   0.104E+02-0.201E+00
CGA:   3    -0.343535756448E+03   -0.59872E+00   -0.59893E+00  7488   0.617E+01 0.509E-01
CGA:   4    -0.343703683733E+03   -0.16793E+00   -0.17837E+00  7488   0.158E+01-0.186E+00
CGA:   5    -0.343828513411E+03   -0.12483E+00   -0.12486E+00  7488   0.166E+01-0.117E-02
CGA:   6    -0.343908778627E+03   -0.80265E-01   -0.80153E-01  7488   0.411E+00-0.149E-02
CGA:   7    -0.343922946217E+03   -0.14168E-01   -0.14190E-01  7488   0.214E+00-0.186E-03
CGA:   8    -0.343937490301E+03   -0.14544E-01   -0.14557E-01  7488   0.179E+00-0.947E-03
CGA:   9    -0.343944437480E+03   -0.69472E-02   -0.69512E-02  7488   0.840E-01 0.324E-04
CGA:  10    -0.343948333255E+03   -0.38958E-02   -0.38975E-02  7488   0.468E-01 0.434E-04
CGA:  11    -0.343950886572E+03   -0.25533E-02   -0.25535E-02  7488   0.202E-01 0.296E-04
CGA:  12    -0.343952092841E+03   -0.12063E-02   -0.12062E-02  7488   0.166E-01 0.363E-04
CGA:  13    -0.343953211468E+03   -0.11186E-02   -0.11183E-02  7488   0.172E-01 0.258E-04
CGA:  14    -0.343953725699E+03   -0.51423E-03   -0.51407E-03  7488   0.262E-02 0.824E-05
CGA:  15    -0.343953879681E+03   -0.15398E-03   -0.15398E-03  7488   0.293E-02 0.538E-06
CGA:  16    -0.343954173567E+03   -0.29389E-03   -0.29347E-03  7488   0.234E-02 0.927E-05
CGA:  17    -0.343954251047E+03   -0.77480E-04   -0.77467E-04  7488   0.678E-03-0.695E-06
CGA:  18    -0.343954283440E+03   -0.32393E-04   -0.32391E-04  7488   0.649E-03-0.466E-06
CGA:  19    -0.343954338418E+03   -0.54978E-04   -0.54983E-04  7488   0.686E-03-0.404E-06
CGA:  20    -0.343954367020E+03   -0.28602E-04   -0.28609E-04  7488   0.387E-03-0.175E-06
CGA:  21    -0.343954392474E+03   -0.25454E-04   -0.25458E-04  7488   0.247E-03-0.668E-06
CGA:  22    -0.343954404874E+03   -0.12400E-04   -0.12394E-04  7488   0.138E-03-0.869E-06
CGA:  23    -0.343954413209E+03   -0.83346E-05   -0.83362E-05  7488   0.200E-03-0.787E-06
CGA:  24    -0.343954424287E+03   -0.11079E-04   -0.11077E-04  7488   0.883E-04-0.939E-06
CGA:  25    -0.343954428089E+03   -0.38019E-05   -0.37951E-05  7488   0.298E-04-0.571E-06
  24 F= -.34395443E+03 E0= -.34393797E+03  d E =0.439591E-02  mag=    20.0000
       N       E                     dE             d eps       ncg     rms          ort
SDA:   1    -0.343163039742E+03    0.79138E+00    0.00000E+00  7488   0.274E+01 0.000E+00
CGA:   2    -0.343350006725E+03   -0.18697E+00   -0.18554E+00  7488   0.517E+01 0.983E-01
CGA:   3    -0.343700368068E+03   -0.35036E+00   -0.35028E+00  7488   0.327E+01 0.581E-02
CGA:   4    -0.343803864689E+03   -0.10350E+00   -0.99287E-01  7488   0.862E+00 0.704E-01
CGA:   5    -0.343879339765E+03   -0.75475E-01   -0.75325E-01  7488   0.115E+01 0.446E-02
CGA:   6    -0.343932773936E+03   -0.53434E-01   -0.53552E-01  7488   0.447E+00 0.237E-02
CGA:   7    -0.343947665752E+03   -0.14892E-01   -0.14870E-01  7488   0.999E-01 0.251E-03
CGA:   8    -0.343954094257E+03   -0.64285E-02   -0.64252E-02  7488   0.156E+00 0.298E-03
CGA:   9    -0.343960857878E+03   -0.67636E-02   -0.67710E-02  7488   0.543E-01 0.116E-03
CGA:  10    -0.343962992757E+03   -0.21349E-02   -0.21347E-02  7488   0.159E-01 0.150E-04
CGA:  11    -0.343964528937E+03   -0.15362E-02   -0.15301E-02  7488   0.186E-01 0.134E-03
CGA:  12    -0.343965407684E+03   -0.87875E-03   -0.87849E-03  7488   0.930E-02-0.619E-05
CGA:  13    -0.343965862688E+03   -0.45500E-03   -0.45495E-03  7488   0.886E-02-0.251E-05
CGA:  14    -0.343966208889E+03   -0.34620E-03   -0.34699E-03  7488   0.182E-02 0.205E-05
CGA:  15    -0.343966351730E+03   -0.14284E-03   -0.14284E-03  7488   0.360E-02 0.232E-06
CGA:  16    -0.343966600084E+03   -0.24835E-03   -0.24836E-03  7488   0.177E-02-0.109E-05
CGA:  17    -0.343966673340E+03   -0.73256E-04   -0.73431E-04  7488   0.598E-03 0.207E-05
CGA:  18    -0.343966718192E+03   -0.44852E-04   -0.44827E-04  7488   0.105E-02 0.999E-06
CGA:  19    -0.343966796928E+03   -0.78736E-04   -0.78675E-04  7488   0.150E-02 0.295E-05
CGA:  20    -0.343966850700E+03   -0.53772E-04   -0.53831E-04  7488   0.257E-03 0.886E-07
CGA:  21    -0.343966875045E+03   -0.24345E-04   -0.24339E-04  7488   0.416E-03-0.150E-06
CGA:  22    -0.343966902230E+03   -0.27185E-04   -0.27188E-04  7488   0.277E-03-0.801E-06
CGA:  23    -0.343966918827E+03   -0.16597E-04   -0.16598E-04  7488   0.266E-03-0.131E-05
CGA:  24    -0.343966932356E+03   -0.13529E-04   -0.13526E-04  7488   0.816E-04-0.440E-06
CGA:  25    -0.343966936523E+03   -0.41666E-05   -0.41696E-05  7488   0.859E-04 0.186E-06
  25 F= -.34396694E+03 E0= -.34395033E+03  d E =-.125084E-01  mag=    20.0000
       N       E                     dE             d eps       ncg     rms          ort
SDA:   1    -0.343495544254E+03    0.47139E+00    0.00000E+00  7488   0.148E+01 0.000E+00
CGA:   2    -0.343589258285E+03   -0.93714E-01   -0.93677E-01  7488   0.313E+01 0.599E-02
CGA:   3    -0.343833240843E+03   -0.24398E+00   -0.24405E+00  7488   0.209E+01-0.356E-02
CGA:   4    -0.343897554018E+03   -0.64313E-01   -0.64205E-01  7488   0.464E+00 0.307E-02
CGA:   5    -0.343924232764E+03   -0.26679E-01   -0.26681E-01  7488   0.519E+00 0.656E-03
CGA:   6    -0.343957642989E+03   -0.33410E-01   -0.33402E-01  7488   0.159E+00 0.919E-03
CGA:   7    -0.343962861702E+03   -0.52187E-02   -0.52069E-02  7488   0.376E-01 0.148E-03
CGA:   8    -0.343967445323E+03   -0.45836E-02   -0.45837E-02  7488   0.483E-01-0.438E-07
CGA:   9    -0.343969522223E+03   -0.20769E-02   -0.20786E-02  7488   0.137E-01 0.754E-05
CGA:  10    -0.343969953322E+03   -0.43110E-03   -0.43115E-03  7488   0.741E-02-0.216E-05
CGA:  11    -0.343970604545E+03   -0.65122E-03   -0.65154E-03  7488   0.943E-02-0.108E-04
CGA:  12    -0.343971007439E+03   -0.40289E-03   -0.40291E-03  7488   0.243E-02-0.622E-05
CGA:  13    -0.343971094711E+03   -0.87272E-04   -0.87266E-04  7488   0.107E-02-0.838E-06
CGA:  14    -0.343971207725E+03   -0.11301E-03   -0.11299E-03  7488   0.141E-02 0.101E-06
CGA:  15    -0.343971277534E+03   -0.69809E-04   -0.69810E-04  7488   0.553E-03-0.785E-06
CGA:  16    -0.343971303278E+03   -0.25744E-04   -0.25745E-04  7488   0.454E-03-0.483E-06
CGA:  17    -0.343971322561E+03   -0.19283E-04   -0.19297E-04  7488   0.194E-03 0.211E-06
CGA:  18    -0.343971334906E+03   -0.12345E-04   -0.12341E-04  7488   0.221E-03 0.477E-06
CGA:  19    -0.343971357627E+03   -0.22720E-04   -0.22673E-04  7488   0.168E-03 0.812E-06
CGA:  20    -0.343971362739E+03   -0.51127E-05   -0.51243E-05  7488   0.425E-04 0.140E-06
  26 F= -.34397136E+03 E0= -.34395473E+03  d E =-.442622E-02  mag=    20.0000
       N       E                     dE             d eps       ncg     rms          ort
SDA:   1    -0.343550002660E+03    0.42135E+00    0.00000E+00  7488   0.138E+01 0.000E+00
CGA:   2    -0.343667808333E+03   -0.11781E+00   -0.11764E+00  7488   0.220E+01 0.602E-02
CGA:   3    -0.343844758629E+03   -0.17695E+00   -0.17658E+00  7488   0.164E+01 0.148E-01
CGA:   4    -0.343896767602E+03   -0.52009E-01   -0.50818E-01  7488   0.543E+00 0.191E-01
CGA:   5    -0.343921835352E+03   -0.25068E-01   -0.24987E-01  7488   0.417E+00-0.661E-03
CGA:   6    -0.343956249419E+03   -0.34414E-01   -0.34395E-01  7488   0.142E+00 0.680E-03
CGA:   7    -0.343961349963E+03   -0.51005E-02   -0.50952E-02  7488   0.397E-01 0.650E-04
CGA:   8    -0.343964328733E+03   -0.29788E-02   -0.29802E-02  7488   0.618E-01-0.594E-04
CGA:   9    -0.343967208184E+03   -0.28795E-02   -0.28803E-02  7488   0.172E-01 0.680E-05
CGA:  10    -0.343967784846E+03   -0.57666E-03   -0.57683E-03  7488   0.707E-02-0.371E-05
CGA:  11    -0.343968241840E+03   -0.45699E-03   -0.45697E-03  7488   0.102E-01 0.327E-05
CGA:  12    -0.343968863047E+03   -0.62121E-03   -0.62121E-03  7488   0.226E-02-0.465E-07
CGA:  13    -0.343968976440E+03   -0.11339E-03   -0.11339E-03  7488   0.133E-02-0.171E-05
CGA:  14    -0.343969072773E+03   -0.96333E-04   -0.96334E-04  7488   0.152E-02 0.101E-06
CGA:  15    -0.343969133484E+03   -0.60711E-04   -0.60760E-04  7488   0.926E-03 0.126E-05
CGA:  16    -0.343969190629E+03   -0.57145E-04   -0.57138E-04  7488   0.554E-03 0.183E-05
CGA:  17    -0.343969217944E+03   -0.27314E-04   -0.27315E-04  7488   0.213E-03-0.155E-06
CGA:  18    -0.343969231966E+03   -0.14023E-04   -0.14021E-04  7488   0.292E-03 0.144E-06
CGA:  19    -0.343969255904E+03   -0.23938E-04   -0.23930E-04  7488   0.388E-03 0.268E-06
CGA:  20    -0.343969271066E+03   -0.15162E-04   -0.15164E-04  7488   0.886E-04 0.437E-07
CGA:  21    -0.343969274823E+03   -0.37569E-05   -0.37579E-05  7488   0.829E-04-0.748E-08
  27 F= -.34396927E+03 E0= -.34395280E+03  d E =0.208792E-02  mag=    20.0000
       N       E                     dE             d eps       ncg     rms          ort
SDA:   1    -0.343876284721E+03    0.92986E-01    0.00000E+00  7488   0.653E+00 0.000E+00
CGA:   2    -0.343895370543E+03   -0.19086E-01   -0.19048E-01  7488   0.303E+00 0.803E-03
CGA:   3    -0.343918778333E+03   -0.23408E-01   -0.23405E-01  7488   0.574E+00 0.148E-03
CGA:   4    -0.343950070992E+03   -0.31293E-01   -0.31304E-01  7488   0.124E+00 0.908E-03
CGA:   5    -0.343955685313E+03   -0.56143E-02   -0.56172E-02  7488   0.948E-01 0.682E-04
CGA:   6    -0.343963287563E+03   -0.76023E-02   -0.76033E-02  7488   0.682E-01-0.258E-04
CGA:   7    -0.343965436518E+03   -0.21490E-02   -0.21491E-02  7488   0.111E-01-0.609E-05
CGA:   8    -0.343966275357E+03   -0.83884E-03   -0.83838E-03  7488   0.137E-01 0.205E-04
CGA:   9    -0.343966818539E+03   -0.54318E-03   -0.54318E-03  7488   0.657E-02 0.439E-05
CGA:  10    -0.343967074981E+03   -0.25644E-03   -0.25638E-03  7488   0.278E-02 0.194E-05
CGA:  11    -0.343967264784E+03   -0.18980E-03   -0.18984E-03  7488   0.133E-02-0.283E-05
CGA:  12    -0.343967343628E+03   -0.78843E-04   -0.78844E-04  7488   0.996E-03-0.553E-07
CGA:  13    -0.343967415197E+03   -0.71570E-04   -0.71557E-04  7488   0.891E-03 0.917E-06
CGA:  14    -0.343967450749E+03   -0.35552E-04   -0.35554E-04  7488   0.194E-03-0.227E-07
CGA:  15    -0.343967461112E+03   -0.10363E-04   -0.10363E-04  7488   0.163E-03 0.811E-07
CGA:  16    -0.343967483439E+03   -0.22327E-04   -0.22298E-04  7488   0.111E-03 0.349E-06
CGA:  17    -0.343967487347E+03   -0.39081E-05   -0.39087E-05  7488   0.408E-04-0.217E-07
  28 F= -.34396749E+03 E0= -.34395098E+03  d E =0.178748E-02  mag=    20.0000
       N       E                     dE             d eps       ncg     rms          ort
SDA:   1    -0.343923202014E+03    0.44281E-01    0.00000E+00  7488   0.489E+00 0.000E+00
CGA:   2    -0.343933451762E+03   -0.10250E-01   -0.10354E-01  7488   0.130E+00-0.351E-02
CGA:   3    -0.343947887741E+03   -0.14436E-01   -0.14462E-01  7488   0.237E+00-0.466E-03
CGA:   4    -0.343959242017E+03   -0.11354E-01   -0.11343E-01  7488   0.790E-01-0.149E-03
CGA:   5    -0.343962544652E+03   -0.33026E-02   -0.33074E-02  7488   0.417E-01 0.262E-04
CGA:   6    -0.343965661882E+03   -0.31172E-02   -0.31167E-02  7488   0.443E-01 0.306E-04
CGA:   7    -0.343967452512E+03   -0.17906E-02   -0.17891E-02  7488   0.970E-02-0.194E-06
CGA:   8    -0.343967839895E+03   -0.38738E-03   -0.38752E-03  7488   0.686E-02 0.241E-05
CGA:   9    -0.343968177017E+03   -0.33712E-03   -0.33718E-03  7488   0.353E-02 0.411E-05
CGA:  10    -0.343968372614E+03   -0.19560E-03   -0.19559E-03  7488   0.166E-02-0.118E-05
CGA:  11    -0.343968493296E+03   -0.12068E-03   -0.12071E-03  7488   0.114E-02-0.143E-05
CGA:  12    -0.343968530724E+03   -0.37428E-04   -0.37437E-04  7488   0.441E-03-0.684E-06
CGA:  13    -0.343968556392E+03   -0.25668E-04   -0.25669E-04  7488   0.506E-03-0.406E-06
CGA:  14    -0.343968592449E+03   -0.36057E-04   -0.36068E-04  7488   0.253E-03-0.775E-06
CGA:  15    -0.343968599874E+03   -0.74252E-05   -0.74220E-05  7488   0.621E-04-0.963E-07
  29 F= -.34396860E+03 E0= -.34395204E+03  d E =-.111253E-02  mag=    20.0000
       N       E                     dE             d eps       ncg     rms          ort
SDA:   1    -0.343590567583E+03    0.37802E+00    0.00000E+00  7488   0.185E+01 0.000E+00
CGA:   2    -0.343653546120E+03   -0.62979E-01   -0.62906E-01  7488   0.155E+01 0.105E-02
CGA:   3    -0.343814151262E+03   -0.16061E+00   -0.16115E+00  7488   0.238E+01-0.112E-01
CGA:   4    -0.343904382192E+03   -0.90231E-01   -0.90054E-01  7488   0.527E+00 0.683E-03
CGA:   5    -0.343927503751E+03   -0.23122E-01   -0.23059E-01  7488   0.356E+00-0.442E-03
CGA:   6    -0.343954588507E+03   -0.27085E-01   -0.27041E-01  7488   0.297E+00 0.183E-02
CGA:   7    -0.343966567968E+03   -0.11979E-01   -0.11951E-01  7488   0.403E-01-0.147E-04
CGA:   8    -0.343969023671E+03   -0.24557E-02   -0.24557E-02  7488   0.360E-01 0.698E-05
CGA:   9    -0.343972132755E+03   -0.31091E-02   -0.31082E-02  7488   0.171E-01 0.274E-04
CGA:  10    -0.343972716691E+03   -0.58394E-03   -0.58414E-03  7488   0.682E-02-0.761E-06
CGA:  11    -0.343973102282E+03   -0.38559E-03   -0.38558E-03  7488   0.790E-02-0.447E-05
CGA:  12    -0.343973522861E+03   -0.42058E-03   -0.42061E-03  7488   0.340E-02-0.892E-06
CGA:  13    -0.343973676976E+03   -0.15412E-03   -0.15413E-03  7488   0.250E-02 0.169E-06
CGA:  14    -0.343973804881E+03   -0.12790E-03   -0.12794E-03  7488   0.710E-03 0.255E-05
CGA:  15    -0.343973856250E+03   -0.51369E-04   -0.51377E-04  7488   0.719E-03-0.931E-06
CGA:  16    -0.343973925250E+03   -0.69001E-04   -0.68924E-04  7488   0.688E-03 0.183E-05
CGA:  17    -0.343973946232E+03   -0.20982E-04   -0.21010E-04  7488   0.210E-03 0.634E-06
CGA:  18    -0.343973956348E+03   -0.10116E-04   -0.10123E-04  7488   0.183E-03 0.257E-06
CGA:  19    -0.343973977672E+03   -0.21324E-04   -0.21259E-04  7488   0.335E-03 0.958E-06
CGA:  20    -0.343973990848E+03   -0.13175E-04   -0.13188E-04  7488   0.799E-04 0.341E-06
CGA:  21    -0.343973995088E+03   -0.42401E-05   -0.42423E-05  7488   0.633E-04 0.141E-06
  30 F= -.34397400E+03 E0= -.34395746E+03  d E =-.539521E-02  mag=    20.0000
       N       E                     dE             d eps       ncg     rms          ort
SDA:   1    -0.341796386626E+03    0.21776E+01    0.00000E+00  7488   0.683E+01 0.000E+00
CGA:   2    -0.342217502959E+03   -0.42112E+00   -0.42112E+00  7488   0.153E+02-0.103E+00
CGA:   3    -0.343436223774E+03   -0.12187E+01   -0.12236E+01  7488   0.585E+01-0.222E+00
CGA:   4    -0.343613692638E+03   -0.17747E+00   -0.18423E+00  7488   0.234E+01-0.971E-01
CGA:   5    -0.343825309736E+03   -0.21162E+00   -0.21284E+00  7488   0.302E+01-0.334E-01
CGA:   6    -0.343918580382E+03   -0.93271E-01   -0.92829E-01  7488   0.395E+00 0.924E-02
CGA:   7    -0.343938791162E+03   -0.20211E-01   -0.20290E-01  7488   0.343E+00 0.252E-02
CGA:   8    -0.343955459315E+03   -0.16668E-01   -0.16662E-01  7488   0.329E+00-0.634E-04
CGA:   9    -0.343969589393E+03   -0.14130E-01   -0.14160E-01  7488   0.639E-01 0.261E-03
CGA:  10    -0.343972983336E+03   -0.33939E-02   -0.33972E-02  7488   0.512E-01 0.212E-03
CGA:  11    -0.343976891207E+03   -0.39079E-02   -0.39058E-02  7488   0.321E-01 0.889E-04
CGA:  12    -0.343978265759E+03   -0.13746E-02   -0.13769E-02  7488   0.193E-01 0.233E-04
CGA:  13    -0.343979398940E+03   -0.11332E-02   -0.11332E-02  7488   0.711E-02-0.140E-04
CGA:  14    -0.343979792522E+03   -0.39358E-03   -0.39365E-03  7488   0.438E-02 0.542E-05
CGA:  15    -0.343980224911E+03   -0.43239E-03   -0.43117E-03  7488   0.660E-02 0.253E-04
CGA:  16    -0.343980452209E+03   -0.22730E-03   -0.22742E-03  7488   0.150E-02-0.366E-05
CGA:  17    -0.343980505989E+03   -0.53781E-04   -0.53889E-04  7488   0.985E-03-0.174E-05
CGA:  18    -0.343980630256E+03   -0.12427E-03   -0.12417E-03  7488   0.177E-02-0.637E-06
CGA:  19    -0.343980700037E+03   -0.69781E-04   -0.70070E-04  7488   0.529E-03 0.957E-06
CGA:  20    -0.343980726850E+03   -0.26813E-04   -0.26828E-04  7488   0.297E-03 0.413E-06
CGA:  21    -0.343980761115E+03   -0.34265E-04   -0.34081E-04  7488   0.407E-03 0.274E-05
CGA:  22    -0.343980779632E+03   -0.18517E-04   -0.18532E-04  7488   0.213E-03 0.299E-06
CGA:  23    -0.343980790227E+03   -0.10594E-04   -0.10610E-04  7488   0.173E-03 0.464E-06
CGA:  24    -0.343980797202E+03   -0.69753E-05   -0.69954E-05  7488   0.499E-04 0.593E-06
  31 F= -.34398080E+03 E0= -.34396436E+03  d E =-.680211E-02  mag=    20.0000
       N       E                     dE             d eps       ncg     rms          ort
SDA:   1    -0.340018219706E+03    0.39626E+01    0.00000E+00  7488   0.136E+02 0.000E+00
CGA:   2    -0.340825878123E+03   -0.80766E+00   -0.80427E+00  7488   0.257E+02-0.109E+01
CGA:   3    -0.342455098807E+03   -0.16292E+01   -0.16363E+01  7488   0.272E+02-0.534E+00
CGA:   4    -0.343173055012E+03   -0.71796E+00   -0.79248E+00  7488   0.465E+01-0.130E+01
CGA:   5    -0.343463462371E+03   -0.29041E+00   -0.29032E+00  7488   0.773E+01 0.837E-02
CGA:   6    -0.343763147603E+03   -0.29969E+00   -0.29503E+00  7488   0.336E+01 0.221E-01
CGA:   7    -0.343869966767E+03   -0.10682E+00   -0.10731E+00  7488   0.434E+00-0.669E-02
CGA:   8    -0.343918778025E+03   -0.48811E-01   -0.48422E-01  7488   0.899E+00 0.696E-02
CGA:   9    -0.343943619620E+03   -0.24842E-01   -0.24956E-01  7488   0.198E+00-0.215E-02
CGA:  10    -0.343951844985E+03   -0.82254E-02   -0.82672E-02  7488   0.108E+00 0.277E-03
CGA:  11    -0.343959697285E+03   -0.78523E-02   -0.78525E-02  7488   0.107E+00 0.685E-05
CGA:  12    -0.343964151801E+03   -0.44545E-02   -0.44657E-02  7488   0.488E-01 0.928E-04
CGA:  13    -0.343966935367E+03   -0.27836E-02   -0.27839E-02  7488   0.304E-01 0.246E-03
CGA:  14    -0.343968239793E+03   -0.13044E-02   -0.13043E-02  7488   0.149E-01-0.717E-05
CGA:  15    -0.343968804395E+03   -0.56460E-03   -0.56643E-03  7488   0.114E-01-0.188E-05
CGA:  16    -0.343969850661E+03   -0.10463E-02   -0.10452E-02  7488   0.899E-02 0.238E-04
CGA:  17    -0.343970241334E+03   -0.39067E-03   -0.39096E-03  7488   0.216E-02 0.301E-05
CGA:  18    -0.343970408453E+03   -0.16712E-03   -0.16687E-03  7488   0.346E-02 0.854E-05
CGA:  19    -0.343970683627E+03   -0.27517E-03   -0.27488E-03  7488   0.361E-02 0.116E-04
CGA:  20    -0.343970798532E+03   -0.11491E-03   -0.11534E-03  7488   0.861E-03-0.137E-05
CGA:  21    -0.343970849913E+03   -0.51381E-04   -0.51376E-04  7488   0.131E-02 0.100E-05
CGA:  22    -0.343970947278E+03   -0.97366E-04   -0.97224E-04  7488   0.105E-02 0.631E-05
CGA:  23    -0.343970998641E+03   -0.51363E-04   -0.51402E-04  7488   0.419E-03 0.309E-05
CGA:  24    -0.343971030265E+03   -0.31624E-04   -0.31561E-04  7488   0.327E-03 0.293E-05
CGA:  25    -0.343971049431E+03   -0.19166E-04   -0.19167E-04  7488   0.244E-03 0.161E-05
CGA:  26    -0.343971065813E+03   -0.16383E-04   -0.16363E-04  7488   0.338E-03 0.199E-05
CGA:  27    -0.343971080358E+03   -0.14545E-04   -0.14581E-04  7488   0.123E-03 0.159E-05
CGA:  28    -0.343971085871E+03   -0.55124E-05   -0.55155E-05  7488   0.710E-04-0.151E-06
  32 F= -.34397109E+03 E0= -.34395467E+03  d E =0.971133E-02  mag=    20.0000
       N       E                     dE             d eps       ncg     rms          ort
SDA:   1    -0.342650317292E+03    0.13208E+01    0.00000E+00  7488   0.433E+01 0.000E+00
CGA:   2    -0.342940385346E+03   -0.29007E+00   -0.29123E+00  7488   0.819E+01-0.888E-01
CGA:   3    -0.343562074141E+03   -0.62169E+00   -0.62193E+00  7488   0.446E+01-0.186E-01
CGA:   4    -0.343736770825E+03   -0.17470E+00   -0.17239E+00  7488   0.126E+01 0.540E-02
CGA:   5    -0.343856482211E+03   -0.11971E+00   -0.12028E+00  7488   0.151E+01-0.139E-01
CGA:   6    -0.343923292491E+03   -0.66810E-01   -0.66953E-01  7488   0.302E+00 0.123E-02
CGA:   7    -0.343934014352E+03   -0.10722E-01   -0.10727E-01  7488   0.162E+00 0.630E-04
CGA:   8    -0.343945660795E+03   -0.11646E-01   -0.11644E-01  7488   0.180E+00 0.180E-03
CGA:   9    -0.343953511338E+03   -0.78505E-02   -0.78666E-02  7488   0.551E-01 0.154E-03
CGA:  10    -0.343955084599E+03   -0.15733E-02   -0.15827E-02  7488   0.226E-01-0.158E-03
CGA:  11    -0.343957419767E+03   -0.23352E-02   -0.23285E-02  7488   0.313E-01 0.139E-03
CGA:  12    -0.343958811676E+03   -0.13919E-02   -0.13924E-02  7488   0.602E-02 0.144E-04
CGA:  13    -0.343959243022E+03   -0.43135E-03   -0.43087E-03  7488   0.573E-02 0.253E-04
CGA:  14    -0.343959470005E+03   -0.22698E-03   -0.22744E-03  7488   0.389E-02 0.204E-05
CGA:  15    -0.343959690355E+03   -0.22035E-03   -0.22038E-03  7488   0.285E-02 0.833E-05
CGA:  16    -0.343959899945E+03   -0.20959E-03   -0.20954E-03  7488   0.105E-02 0.116E-05
CGA:  17    -0.343959941323E+03   -0.41378E-04   -0.41397E-04  7488   0.639E-03-0.123E-05
CGA:  18    -0.343959999333E+03   -0.58010E-04   -0.57898E-04  7488   0.131E-02 0.244E-05
CGA:  19    -0.343960068006E+03   -0.68673E-04   -0.68704E-04  7488   0.583E-03 0.141E-05
CGA:  20    -0.343960090805E+03   -0.22800E-04   -0.22789E-04  7488   0.211E-03-0.118E-05
CGA:  21    -0.343960103966E+03   -0.13161E-04   -0.13161E-04  7488   0.327E-03-0.600E-06
CGA:  22    -0.343960133213E+03   -0.29247E-04   -0.29302E-04  7488   0.142E-03-0.199E-05
CGA:  23    -0.343960139512E+03   -0.62987E-05   -0.62897E-05  7488   0.994E-04-0.103E-05
  33 F= -.34396014E+03 E0= -.34394387E+03  d E =0.109464E-01  mag=    20.0000
       N       E                     dE             d eps       ncg     rms          ort
SDA:   1    -0.343590831933E+03    0.36930E+00    0.00000E+00  7488   0.155E+01 0.000E+00
CGA:   2    -0.343673446392E+03   -0.82614E-01   -0.82783E-01  7488   0.210E+01 0.118E-01
CGA:   3    -0.343814461182E+03   -0.14101E+00   -0.14108E+00  7488   0.187E+01-0.532E-02
CGA:   4    -0.343884185769E+03   -0.69725E-01   -0.69616E-01  7488   0.506E+00-0.348E-03
CGA:   5    -0.343916171687E+03   -0.31986E-01   -0.31974E-01  7488   0.517E+00 0.144E-02
CGA:   6    -0.343948422084E+03   -0.32250E-01   -0.32241E-01  7488   0.326E+00 0.145E-02
CGA:   7    -0.343959617132E+03   -0.11195E-01   -0.11117E-01  7488   0.480E-01 0.759E-03
CGA:   8    -0.343963667063E+03   -0.40499E-02   -0.40473E-02  7488   0.683E-01 0.822E-04
CGA:   9    -0.343966719980E+03   -0.30529E-02   -0.30504E-02  7488   0.286E-01-0.225E-04
CGA:  10    -0.343967593942E+03   -0.87396E-03   -0.87373E-03  7488   0.864E-02 0.119E-04
CGA:  11    -0.343968265551E+03   -0.67161E-03   -0.67094E-03  7488   0.845E-02 0.257E-04
CGA:  12    -0.343968794039E+03   -0.52849E-03   -0.52850E-03  7488   0.405E-02-0.273E-06
CGA:  13    -0.343969068470E+03   -0.27443E-03   -0.27445E-03  7488   0.381E-02 0.168E-06
CGA:  14    -0.343969192962E+03   -0.12449E-03   -0.12460E-03  7488   0.980E-03-0.569E-06
CGA:  15    -0.343969257201E+03   -0.64240E-04   -0.64243E-04  7488   0.138E-02-0.555E-06
CGA:  16    -0.343969350363E+03   -0.93162E-04   -0.93152E-04  7488   0.126E-02 0.789E-06
CGA:  17    -0.343969399384E+03   -0.49021E-04   -0.49067E-04  7488   0.245E-03 0.163E-05
CGA:  18    -0.343969419471E+03   -0.20086E-04   -0.20072E-04  7488   0.377E-03 0.490E-06
CGA:  19    -0.343969456291E+03   -0.36820E-04   -0.36810E-04  7488   0.503E-03 0.164E-06
CGA:  20    -0.343969472600E+03   -0.16309E-04   -0.16316E-04  7488   0.150E-03-0.162E-06
CGA:  21    -0.343969480082E+03   -0.74827E-05   -0.74842E-05  7488   0.123E-03 0.848E-07
CGA:  22    -0.343969493906E+03   -0.13823E-04   -0.13852E-04  7488   0.143E-03-0.566E-06
CGA:  23    -0.343969500617E+03   -0.67119E-05   -0.67042E-05  7488   0.849E-04-0.606E-06
  34 F= -.34396950E+03 E0= -.34395313E+03  d E =-.936111E-02  mag=    20.0000
       N       E                     dE             d eps       ncg     rms          ort
SDA:   1    -0.343379694986E+03    0.58980E+00    0.00000E+00  7488   0.212E+01 0.000E+00
CGA:   2    -0.343484328595E+03   -0.10463E+00   -0.10438E+00  7488   0.330E+01-0.492E-02
CGA:   3    -0.343784283320E+03   -0.29995E+00   -0.30080E+00  7488   0.262E+01-0.245E-01
CGA:   4    -0.343860951626E+03   -0.76668E-01   -0.78731E-01  7488   0.654E+00-0.331E-01
CGA:   5    -0.343910355369E+03   -0.49404E-01   -0.49411E-01  7488   0.898E+00-0.216E-03
CGA:   6    -0.343951748697E+03   -0.41393E-01   -0.41313E-01  7488   0.175E+00-0.989E-03
CGA:   7    -0.343958950797E+03   -0.72021E-02   -0.72031E-02  7488   0.663E-01-0.133E-04
CGA:   8    -0.343965284877E+03   -0.63341E-02   -0.63373E-02  7488   0.829E-01-0.751E-04
CGA:   9    -0.343968159299E+03   -0.28744E-02   -0.28870E-02  7488   0.274E-01-0.107E-03
CGA:  10    -0.343969082752E+03   -0.92345E-03   -0.92476E-03  7488   0.106E-01-0.142E-04
CGA:  11    -0.343970039341E+03   -0.95659E-03   -0.95668E-03  7488   0.164E-01-0.372E-05
CGA:  12    -0.343970697051E+03   -0.65771E-03   -0.65829E-03  7488   0.383E-02-0.674E-05
CGA:  13    -0.343970909605E+03   -0.21255E-03   -0.21256E-03  7488   0.248E-02-0.270E-05
CGA:  14    -0.343971065231E+03   -0.15563E-03   -0.15561E-03  7488   0.128E-02 0.296E-06
CGA:  15    -0.343971154327E+03   -0.89095E-04   -0.89092E-04  7488   0.167E-02-0.671E-06
CGA:  16    -0.343971234201E+03   -0.79874E-04   -0.79887E-04  7488   0.767E-03-0.443E-07
CGA:  17    -0.343971258460E+03   -0.24260E-04   -0.24300E-04  7488   0.228E-03-0.539E-06
CGA:  18    -0.343971278575E+03   -0.20114E-04   -0.20089E-04  7488   0.449E-03 0.153E-06
CGA:  19    -0.343971308206E+03   -0.29632E-04   -0.29608E-04  7488   0.246E-03 0.236E-05
CGA:  20    -0.343971318359E+03   -0.10153E-04   -0.10168E-04  7488   0.675E-04 0.398E-06
CGA:  21    -0.343971324458E+03   -0.60994E-05   -0.60759E-05  7488   0.126E-03 0.494E-06
  35 F= -.34397132E+03 E0= -.34395491E+03  d E =-.182384E-02  mag=    20.0000
       N       E                     dE             d eps       ncg     rms          ort
SDA:   1    -0.342795493920E+03    0.11758E+01    0.00000E+00  7488   0.345E+01 0.000E+00
CGA:   2    -0.343139668896E+03   -0.34417E+00   -0.35067E+00  7488   0.101E+02-0.144E+00
CGA:   3    -0.343601871166E+03   -0.46220E+00   -0.46251E+00  7488   0.413E+01 0.136E-01
CGA:   4    -0.343743653936E+03   -0.14178E+00   -0.14195E+00  7488   0.144E+01-0.451E-02
CGA:   5    -0.343841489382E+03   -0.97835E-01   -0.98002E-01  7488   0.163E+01-0.128E-01
CGA:   6    -0.343922003218E+03   -0.80514E-01   -0.80532E-01  7488   0.572E+00 0.612E-03
CGA:   7    -0.343940008727E+03   -0.18006E-01   -0.18330E-01  7488   0.132E+00-0.417E-02
CGA:   8    -0.343950642128E+03   -0.10633E-01   -0.10627E-01  7488   0.184E+00 0.237E-03
[...]
CGA:   4    -0.343436392302E+03   -0.54505E+00   -0.54334E+00  7488   0.483E+01 0.534E-01
CGA:   5    -0.343627467232E+03   -0.19107E+00   -0.18601E+00  7488   0.163E+01-0.813E-02
CGA:   6    -0.343770429478E+03   -0.14296E+00   -0.14278E+00  7488   0.243E+01 0.526E-02
CGA:   7    -0.343870640431E+03   -0.10021E+00   -0.10041E+00  7488   0.415E+00 0.205E-02
CGA:   8    -0.343889553857E+03   -0.18913E-01   -0.18842E-01  7488   0.199E+00-0.191E-02
CGA:   9    -0.343905232554E+03   -0.15679E-01   -0.15641E-01  7488   0.147E+00 0.125E-02
CGA:  10    -0.343913043235E+03   -0.78107E-02   -0.78156E-02  7488   0.442E-01 0.642E-03
CGA:  11    -0.343916277388E+03   -0.32342E-02   -0.32296E-02  7488   0.235E-01 0.200E-03
CGA:  12    -0.343917898070E+03   -0.16207E-02   -0.16206E-02  7488   0.259E-01-0.260E-05
CGA:  13    -0.343919162212E+03   -0.12641E-02   -0.12653E-02  7488   0.188E-01 0.287E-04
CGA:  14    -0.343919989959E+03   -0.82775E-03   -0.82785E-03  7488   0.664E-02-0.150E-04
CGA:  15    -0.343920217029E+03   -0.22707E-03   -0.22722E-03  7488   0.295E-02-0.467E-05
CGA:  16    -0.343920489183E+03   -0.27215E-03   -0.27209E-03  7488   0.507E-02 0.909E-06
CGA:  17    -0.343920745882E+03   -0.25670E-03   -0.25680E-03  7488   0.119E-02 0.690E-05
CGA:  18    -0.343920804806E+03   -0.58924E-04   -0.58955E-04  7488   0.658E-03 0.275E-05
CGA:  19    -0.343920873457E+03   -0.68651E-04   -0.68418E-04  7488   0.114E-02 0.460E-05
CGA:  20    -0.343920925513E+03   -0.52057E-04   -0.52103E-04  7488   0.760E-03 0.277E-05
CGA:  21    -0.343920953869E+03   -0.28355E-04   -0.28433E-04  7488   0.227E-03 0.254E-05
CGA:  22    -0.343920973257E+03   -0.19388E-04   -0.19262E-04  7488   0.203E-03 0.422E-05
CGA:  23    -0.343920989347E+03   -0.16090E-04   -0.16011E-04  7488   0.166E-03 0.389E-05
CGA:  24    -0.343921001203E+03   -0.11856E-04   -0.11814E-04  7488   0.121E-03 0.374E-05
CGA:  25    -0.343921005086E+03   -0.38830E-05   -0.39277E-05  7488   0.373E-04 0.129E-05
  49 F= -.34392101E+03 E0= -.34390457E+03  d E =-.849185E-01  mag=    20.0000
       N       E                     dE             d eps       ncg     rms          ort
SDA:   1    -0.343253786121E+03    0.66722E+00    0.00000E+00  7488   0.560E+01 0.000E+00
CGA:   2    -0.343438095437E+03   -0.18431E+00   -0.18912E+00  7488   0.279E+01-0.933E-01
CGA:   3    -0.343569987759E+03   -0.13189E+00   -0.13155E+00  7488   0.274E+01-0.848E-02
CGA:   4    -0.343781211556E+03   -0.21122E+00   -0.21102E+00  7488   0.146E+01 0.715E-02
CGA:   5    -0.343843714176E+03   -0.62503E-01   -0.61871E-01  7488   0.635E+00-0.449E-02
CGA:   6    -0.343900175396E+03   -0.56461E-01   -0.56317E-01  7488   0.885E+00 0.400E-02
CGA:   7    -0.343927708652E+03   -0.27533E-01   -0.27535E-01  7488   0.178E+00 0.437E-06
CGA:   8    -0.343935533314E+03   -0.78247E-02   -0.78184E-02  7488   0.984E-01-0.833E-04
CGA:   9    -0.343941052736E+03   -0.55194E-02   -0.55192E-02  7488   0.594E-01-0.115E-03
CGA:  10    -0.343943756561E+03   -0.27038E-02   -0.27067E-02  7488   0.338E-01 0.639E-04
CGA:  11    -0.343945611537E+03   -0.18550E-02   -0.18550E-02  7488   0.204E-01-0.919E-05
CGA:  12    -0.343946419762E+03   -0.80823E-03   -0.80812E-03  7488   0.770E-02-0.903E-05
CGA:  13    -0.343946790580E+03   -0.37082E-03   -0.37078E-03  7488   0.843E-02-0.776E-05
CGA:  14    -0.343947533233E+03   -0.74265E-03   -0.74391E-03  7488   0.281E-02-0.373E-04
CGA:  15    -0.343947649545E+03   -0.11631E-03   -0.11631E-03  7488   0.140E-02-0.259E-05
CGA:  16    -0.343947715496E+03   -0.65951E-04   -0.65947E-04  7488   0.146E-02-0.108E-05
CGA:  17    -0.343947834944E+03   -0.11945E-03   -0.11947E-03  7488   0.907E-03-0.111E-05
CGA:  18    -0.343947872123E+03   -0.37179E-04   -0.37192E-04  7488   0.352E-03 0.634E-06
CGA:  19    -0.343947893279E+03   -0.21156E-04   -0.21149E-04  7488   0.357E-03 0.157E-05
CGA:  20    -0.343947910500E+03   -0.17221E-04   -0.17233E-04  7488   0.233E-03 0.124E-05
CGA:  21    -0.343947926212E+03   -0.15712E-04   -0.15688E-04  7488   0.256E-03 0.202E-05
CGA:  22    -0.343947940159E+03   -0.13947E-04   -0.13955E-04  7488   0.109E-03 0.304E-05
CGA:  23    -0.343947944097E+03   -0.39385E-05   -0.39732E-05  7488   0.509E-04 0.154E-05
  50 F= -.34394794E+03 E0= -.34393152E+03  d E =-.269390E-01  mag=    20.0000
       N       E                     dE             d eps       ncg     rms          ort
SDA:   1    -0.343605780218E+03    0.34216E+00    0.00000E+00  7488   0.167E+01 0.000E+00
CGA:   2    -0.343680732739E+03   -0.74953E-01   -0.75413E-01  7488   0.178E+01 0.713E-02
CGA:   3    -0.343779466308E+03   -0.98734E-01   -0.98691E-01  7488   0.153E+01-0.817E-02
CGA:   4    -0.343871655748E+03   -0.92189E-01   -0.92186E-01  7488   0.591E+00 0.628E-03
CGA:   5    -0.343900988440E+03   -0.29333E-01   -0.29284E-01  7488   0.483E+00-0.201E-02
CGA:   6    -0.343932053522E+03   -0.31065E-01   -0.31042E-01  7488   0.247E+00 0.195E-02
CGA:   7    -0.343941264880E+03   -0.92114E-02   -0.92785E-02  7488   0.110E+00-0.125E-03
CGA:   8    -0.343947530099E+03   -0.62652E-02   -0.62655E-02  7488   0.632E-01-0.366E-03
CGA:   9    -0.343949509991E+03   -0.19799E-02   -0.19779E-02  7488   0.244E-01 0.967E-05
CGA:  10    -0.343951137005E+03   -0.16270E-02   -0.16263E-02  7488   0.194E-01 0.390E-04
CGA:  11    -0.343952433253E+03   -0.12962E-02   -0.12964E-02  7488   0.415E-02-0.114E-04
CGA:  12    -0.343952641080E+03   -0.20783E-03   -0.20779E-03  7488   0.532E-02-0.754E-05
CGA:  13    -0.343953029633E+03   -0.38855E-03   -0.38894E-03  7488   0.480E-02-0.223E-04
CGA:  14    -0.343953195589E+03   -0.16596E-03   -0.16586E-03  7488   0.965E-03-0.111E-04
CGA:  15    -0.343953253405E+03   -0.57815E-04   -0.57822E-04  7488   0.945E-03-0.169E-05
CGA:  16    -0.343953304890E+03   -0.51485E-04   -0.51483E-04  7488   0.624E-03-0.166E-05
CGA:  17    -0.343953343730E+03   -0.38840E-04   -0.38842E-04  7488   0.397E-03-0.539E-06
CGA:  18    -0.343953364751E+03   -0.21021E-04   -0.21024E-04  7488   0.339E-03 0.847E-06
CGA:  19    -0.343953376727E+03   -0.11976E-04   -0.12000E-04  7488   0.941E-04 0.108E-05
CGA:  20    -0.343953383973E+03   -0.72465E-05   -0.72239E-05  7488   0.145E-03 0.101E-05
CGA:  21    -0.343953397077E+03   -0.13104E-04   -0.13009E-04  7488   0.724E-04 0.283E-05
CGA:  22    -0.343953399742E+03   -0.26648E-05   -0.26897E-05  7488   0.393E-04 0.111E-05
  51 F= -.34395340E+03 E0= -.34393698E+03  d E =-.545564E-02  mag=    20.0000
       N       E                     dE             d eps       ncg     rms          ort
SDA:   1    -0.343893751368E+03    0.59646E-01    0.00000E+00  7488   0.504E+00 0.000E+00
CGA:   2    -0.343905216821E+03   -0.11465E-01   -0.11442E-01  7488   0.184E+00 0.775E-03
CGA:   3    -0.343927156525E+03   -0.21940E-01   -0.21995E-01  7488   0.282E+00-0.899E-03
CGA:   4    -0.343940164208E+03   -0.13008E-01   -0.13022E-01  7488   0.932E-01 0.274E-03
CGA:   5    -0.343946273690E+03   -0.61095E-02   -0.61017E-02  7488   0.700E-01 0.642E-03
CGA:   6    -0.343950028898E+03   -0.37552E-02   -0.37547E-02  7488   0.302E-01-0.305E-04
CGA:   7    -0.343951604251E+03   -0.15754E-02   -0.15756E-02  7488   0.241E-01 0.196E-04
CGA:   8    -0.343952797899E+03   -0.11936E-02   -0.11932E-02  7488   0.437E-02-0.234E-04
CGA:   9    -0.343953058861E+03   -0.26096E-03   -0.26096E-03  7488   0.390E-02-0.187E-06
CGA:  10    -0.343953264603E+03   -0.20574E-03   -0.20571E-03  7488   0.399E-02-0.669E-05
CGA:  11    -0.343953423443E+03   -0.15884E-03   -0.15871E-03  7488   0.665E-03-0.954E-05
CGA:  12    -0.343953462445E+03   -0.39002E-04   -0.39009E-04  7488   0.661E-03-0.300E-05
CGA:  13    -0.343953526655E+03   -0.64211E-04   -0.64400E-04  7488   0.527E-03-0.463E-05
CGA:  14    -0.343953543797E+03   -0.17142E-04   -0.17108E-04  7488   0.135E-03-0.136E-05
CGA:  15    -0.343953552321E+03   -0.85234E-05   -0.85249E-05  7488   0.140E-03-0.256E-06
  52 F= -.34395355E+03 E0= -.34393713E+03  d E =-.152579E-03  mag=    20.0000
       N       E                     dE             d eps       ncg     rms          ort
SDA:   1    -0.343896022231E+03    0.57522E-01    0.00000E+00  7488   0.937E+00 0.000E+00
CGA:   2    -0.343912896246E+03   -0.16874E-01   -0.16892E-01  7488   0.122E+00-0.475E-03
CGA:   3    -0.343931572678E+03   -0.18676E-01   -0.18628E-01  7488   0.227E+00 0.571E-03
CGA:   4    -0.343941820473E+03   -0.10248E-01   -0.10211E-01  7488   0.554E-01-0.316E-03
CGA:   5    -0.343945846795E+03   -0.40263E-02   -0.40220E-02  7488   0.547E-01 0.244E-03
CGA:   6    -0.343949663498E+03   -0.38167E-02   -0.38177E-02  7488   0.357E-01-0.623E-04
CGA:   7    -0.343950620307E+03   -0.95681E-03   -0.95791E-03  7488   0.751E-02-0.160E-04
CGA:   8    -0.343950993405E+03   -0.37310E-03   -0.37304E-03  7488   0.646E-02-0.276E-05
CGA:   9    -0.343951510251E+03   -0.51685E-03   -0.51696E-03  7488   0.302E-02-0.587E-05
CGA:  10    -0.343951603837E+03   -0.93587E-04   -0.93387E-04  7488   0.972E-03-0.116E-06
CGA:  11    -0.343951679484E+03   -0.75647E-04   -0.75702E-04  7488   0.109E-02-0.286E-05
CGA:  12    -0.343951745107E+03   -0.65623E-04   -0.65624E-04  7488   0.706E-03-0.660E-06
CGA:  13    -0.343951769902E+03   -0.24795E-04   -0.24797E-04  7488   0.377E-03-0.166E-07
CGA:  14    -0.343951791746E+03   -0.21844E-04   -0.21844E-04  7488   0.164E-03 0.188E-06
CGA:  15    -0.343951800860E+03   -0.91136E-05   -0.91143E-05  7488   0.132E-03 0.246E-06
CGA:  16    -0.343951814344E+03   -0.13484E-04   -0.13455E-04  7488   0.143E-03 0.659E-06
CGA:  17    -0.343951819973E+03   -0.56295E-05   -0.56320E-05  7488   0.657E-04 0.715E-07
  53 F= -.34395182E+03 E0= -.34393541E+03  d E =0.173235E-02  mag=    20.0000
       N       E                     dE             d eps       ncg     rms          ort
SDA:   1    -0.343932003466E+03    0.19811E-01    0.00000E+00  7488   0.135E+00 0.000E+00
CGA:   2    -0.343935607759E+03   -0.36043E-02   -0.36015E-02  7488   0.643E-01 0.681E-04
CGA:   3    -0.343940894505E+03   -0.52867E-02   -0.52844E-02  7488   0.849E-01 0.793E-04
CGA:   4    -0.343945138383E+03   -0.42439E-02   -0.42425E-02  7488   0.245E-01-0.543E-04
CGA:   5    -0.343946489930E+03   -0.13515E-02   -0.13517E-02  7488   0.180E-01 0.317E-04
CGA:   6    -0.343947738483E+03   -0.12486E-02   -0.12486E-02  7488   0.161E-01 0.107E-05
CGA:   7    -0.343948375960E+03   -0.63748E-03   -0.63764E-03  7488   0.532E-02 0.475E-05
CGA:   8    -0.343948638502E+03   -0.26254E-03   -0.26250E-03  7488   0.346E-02 0.362E-06
CGA:   9    -0.343948776072E+03   -0.13757E-03   -0.13757E-03  7488   0.148E-02-0.110E-05
CGA:  10    -0.343948840546E+03   -0.64474E-04   -0.64453E-04  7488   0.905E-03-0.212E-05
CGA:  11    -0.343948919144E+03   -0.78599E-04   -0.78649E-04  7488   0.520E-03-0.158E-05
CGA:  12    -0.343948939942E+03   -0.20797E-04   -0.20807E-04  7488   0.177E-03 0.420E-06
CGA:  13    -0.343948955831E+03   -0.15889E-04   -0.15883E-04  7488   0.440E-03 0.166E-06
CGA:  14    -0.343948975134E+03   -0.19303E-04   -0.19306E-04  7488   0.861E-04 0.232E-06
CGA:  15    -0.343948979906E+03   -0.47720E-05   -0.47724E-05  7488   0.773E-04 0.257E-06
  54 F= -.34394898E+03 E0= -.34393257E+03  d E =0.284007E-02  mag=    20.0000
       N       E                     dE             d eps       ncg     rms          ort
SDA:   1    -0.343831940299E+03    0.11703E+00    0.00000E+00  7488   0.807E+00 0.000E+00
CGA:   2    -0.343855460242E+03   -0.23520E-01   -0.23289E-01  7488   0.409E+00 0.423E-02
CGA:   3    -0.343887904437E+03   -0.32444E-01   -0.32334E-01  7488   0.526E+00 0.399E-02
CGA:   4    -0.343916138822E+03   -0.28234E-01   -0.28213E-01  7488   0.272E+00-0.189E-02
CGA:   5    -0.343924648549E+03   -0.85097E-02   -0.85057E-02  7488   0.783E-01 0.638E-04
CGA:   6    -0.343932695679E+03   -0.80471E-02   -0.80318E-02  7488   0.106E+00 0.320E-03
CGA:   7    -0.343937959162E+03   -0.52635E-02   -0.52636E-02  7488   0.196E-01 0.240E-05
CGA:   8    -0.343939175014E+03   -0.12159E-02   -0.12156E-02  7488   0.986E-02 0.331E-04
CGA:   9    -0.343939819449E+03   -0.64444E-03   -0.64427E-03  7488   0.523E-02 0.160E-04
CGA:  10    -0.343940137820E+03   -0.31837E-03   -0.31838E-03  7488   0.606E-02 0.672E-06
CGA:  11    -0.343940411270E+03   -0.27345E-03   -0.27344E-03  7488   0.222E-02 0.699E-06
CGA:  12    -0.343940483771E+03   -0.72501E-04   -0.72595E-04  7488   0.892E-03-0.471E-06
CGA:  13    -0.343940581116E+03   -0.97345E-04   -0.97312E-04  7488   0.178E-02 0.810E-06
CGA:  14    -0.343940653150E+03   -0.72035E-04   -0.72026E-04  7488   0.448E-03-0.608E-07
CGA:  15    -0.343940678899E+03   -0.25749E-04   -0.25749E-04  7488   0.320E-03-0.301E-06
CGA:  16    -0.343940724134E+03   -0.45235E-04   -0.45165E-04  7488   0.519E-03 0.843E-06
CGA:  17    -0.343940746523E+03   -0.22388E-04   -0.22383E-04  7488   0.262E-03-0.412E-06
CGA:  18    -0.343940756864E+03   -0.10341E-04   -0.10335E-04  7488   0.189E-03-0.343E-06
CGA:  19    -0.343940774129E+03   -0.17265E-04   -0.17263E-04  7488   0.191E-03 0.264E-07
CGA:  20    -0.343940785816E+03   -0.11687E-04   -0.11687E-04  7488   0.142E-03 0.379E-06
CGA:  21    -0.343940797253E+03   -0.11437E-04   -0.11444E-04  7488   0.686E-04-0.371E-06
CGA:  22    -0.343940799950E+03   -0.26964E-05   -0.26981E-05  7488   0.447E-04 0.790E-07
  55 F= -.34394080E+03 E0= -.34392442E+03  d E =0.817996E-02  mag=    20.0000
       N       E                     dE             d eps       ncg     rms          ort
SDA:   1    -0.343871619489E+03    0.69178E-01    0.00000E+00  7488   0.590E+00 0.000E+00
CGA:   2    -0.343885385024E+03   -0.13766E-01   -0.13656E-01  7488   0.210E+00 0.350E-02
CGA:   3    -0.343906045945E+03   -0.20661E-01   -0.20719E-01  7488   0.318E+00-0.134E-02
CGA:   4    -0.343920584188E+03   -0.14538E-01   -0.14573E-01  7488   0.600E-01 0.350E-03
CGA:   5    -0.343925378931E+03   -0.47947E-02   -0.47973E-02  7488   0.807E-01-0.938E-04
CGA:   6    -0.343931320741E+03   -0.59418E-02   -0.59414E-02  7488   0.291E-01 0.308E-04
CGA:   7    -0.343932113112E+03   -0.79237E-03   -0.79224E-03  7488   0.104E-01 0.118E-04
CGA:   8    -0.343932769901E+03   -0.65679E-03   -0.65678E-03  7488   0.104E-01 0.517E-05
CGA:   9    -0.343933398689E+03   -0.62879E-03   -0.62879E-03  7488   0.284E-02 0.344E-05
CGA:  10    -0.343933506945E+03   -0.10826E-03   -0.10828E-03  7488   0.150E-02-0.390E-07
CGA:  11    -0.343933618554E+03   -0.11161E-03   -0.11158E-03  7488   0.213E-02 0.226E-05
CGA:  12    -0.343933729684E+03   -0.11113E-03   -0.11117E-03  7488   0.816E-03 0.468E-05
CGA:  13    -0.343933757418E+03   -0.27734E-04   -0.27769E-04  7488   0.374E-03 0.142E-05
CGA:  14    -0.343933783761E+03   -0.26343E-04   -0.26331E-04  7488   0.455E-03 0.970E-06
CGA:  15    -0.343933813834E+03   -0.30073E-04   -0.30066E-04  7488   0.266E-03 0.101E-05
CGA:  16    -0.343933832903E+03   -0.19069E-04   -0.19060E-04  7488   0.279E-03 0.755E-06
CGA:  17    -0.343933843767E+03   -0.10865E-04   -0.10866E-04  7488   0.126E-03 0.969E-07
CGA:  18    -0.343933849975E+03   -0.62080E-05   -0.62030E-05  7488   0.116E-03-0.515E-06
CGA:  19    -0.343933866565E+03   -0.16590E-04   -0.16683E-04  7488   0.126E-03-0.108E-05
CGA:  20    -0.343933870920E+03   -0.43550E-05   -0.43519E-05  7488   0.439E-04-0.139E-06
  56 F= -.34393387E+03 E0= -.34391746E+03  d E =0.692903E-02  mag=    20.0000
       N       E                     dE             d eps       ncg     rms          ort
SDA:   1    -0.343855978788E+03    0.77888E-01    0.00000E+00  7488   0.289E+00 0.000E+00
CGA:   2    -0.343872624345E+03   -0.16646E-01   -0.16640E-01  7488   0.450E+00-0.585E-03
CGA:   3    -0.343902425957E+03   -0.29802E-01   -0.29796E-01  7488   0.290E+00 0.719E-03
CGA:   4    -0.343911803978E+03   -0.93780E-02   -0.93805E-02  7488   0.890E-01-0.289E-04
CGA:   5    -0.343918564611E+03   -0.67606E-02   -0.67606E-02  7488   0.144E+00 0.194E-04
CGA:   6    -0.343925710134E+03   -0.71455E-02   -0.71413E-02  7488   0.256E-01-0.981E-04
CGA:   7    -0.343926853304E+03   -0.11432E-02   -0.11438E-02  7488   0.147E-01 0.123E-04
CGA:   8    -0.343928026807E+03   -0.11735E-02   -0.11731E-02  7488   0.894E-02 0.158E-04
CGA:   9    -0.343928347680E+03   -0.32087E-03   -0.32104E-03  7488   0.473E-02 0.970E-06
CGA:  10    -0.343928572226E+03   -0.22455E-03   -0.22456E-03  7488   0.300E-02 0.302E-05
CGA:  11    -0.343928717903E+03   -0.14568E-03   -0.14573E-03  7488   0.106E-02 0.419E-05
CGA:  12    -0.343928817740E+03   -0.99836E-04   -0.99741E-04  7488   0.171E-02 0.298E-05
CGA:  13    -0.343928889423E+03   -0.71683E-04   -0.71724E-04  7488   0.406E-03 0.203E-05
CGA:  14    -0.343928906913E+03   -0.17490E-04   -0.17504E-04  7488   0.259E-03 0.814E-06
CGA:  15    -0.343928933508E+03   -0.26595E-04   -0.26563E-04  7488   0.590E-03 0.722E-06
CGA:  16    -0.343928955285E+03   -0.21776E-04   -0.21785E-04  7488   0.126E-03 0.259E-06
CGA:  17    -0.343928961899E+03   -0.66142E-05   -0.66137E-05  7488   0.958E-04-0.124E-06
CGA:  18    -0.343928972771E+03   -0.10872E-04   -0.10866E-04  7488   0.127E-03 0.826E-07
CGA:  19    -0.343928979165E+03   -0.63936E-05   -0.63912E-05  7488   0.935E-04-0.238E-06
  57 F= -.34392898E+03 E0= -.34391254E+03  d E =0.489176E-02  mag=    20.0000
       N       E                     dE             d eps       ncg     rms          ort
SDA:   1    -0.343898663872E+03    0.30309E-01    0.00000E+00  7488   0.247E+00 0.000E+00
CGA:   2    -0.343904665204E+03   -0.60013E-02   -0.60323E-02  7488   0.963E-01-0.785E-03
CGA:   3    -0.343913634669E+03   -0.89695E-02   -0.89558E-02  7488   0.168E+00 0.362E-03
CGA:   4    -0.343921640421E+03   -0.80058E-02   -0.80015E-02  7488   0.373E-01-0.547E-04
CGA:   5    -0.343924140168E+03   -0.24997E-02   -0.24997E-02  7488   0.330E-01-0.472E-05
CGA:   6    -0.343926547220E+03   -0.24071E-02   -0.24074E-02  7488   0.253E-01-0.304E-04
CGA:   7    -0.343927271860E+03   -0.72464E-03   -0.72426E-03  7488   0.569E-02-0.106E-04
CGA:   8    -0.343927522650E+03   -0.25079E-03   -0.25072E-03  7488   0.368E-02-0.164E-05
CGA:   9    -0.343927788922E+03   -0.26627E-03   -0.26621E-03  7488   0.263E-02 0.438E-05
CGA:  10    -0.343927877365E+03   -0.88443E-04   -0.88467E-04  7488   0.820E-03 0.270E-05
CGA:  11    -0.343927935681E+03   -0.58316E-04   -0.58312E-04  7488   0.574E-03 0.501E-06
CGA:  12    -0.343927962900E+03   -0.27219E-04   -0.27216E-04  7488   0.397E-03-0.313E-06
CGA:  13    -0.343927982566E+03   -0.19666E-04   -0.19660E-04  7488   0.369E-03-0.714E-06
CGA:  14    -0.343928002938E+03   -0.20372E-04   -0.20370E-04  7488   0.113E-03-0.785E-06
CGA:  15    -0.343928007791E+03   -0.48529E-05   -0.48488E-05  7488   0.543E-04-0.320E-06
  58 F= -.34392801E+03 E0= -.34391153E+03  d E =0.971373E-03  mag=    20.0000
       N       E                     dE             d eps       ncg     rms          ort
SDA:   1    -0.343913434866E+03    0.14568E-01    0.00000E+00  7488   0.678E+00 0.000E+00
CGA:   2    -0.343924660650E+03   -0.11226E-01   -0.11112E-01  7488   0.226E-01 0.572E-02
CGA:   3    -0.343925785121E+03   -0.11245E-02   -0.11245E-02  7488   0.163E-01-0.414E-05
CGA:   4    -0.343927323370E+03   -0.15382E-02   -0.15381E-02  7488   0.219E-01 0.366E-05
CGA:   5    -0.343928177614E+03   -0.85424E-03   -0.85407E-03  7488   0.676E-02 0.218E-05
CGA:   6    -0.343928478978E+03   -0.30136E-03   -0.30146E-03  7488   0.471E-02 0.449E-05
CGA:   7    -0.343928812501E+03   -0.33352E-03   -0.33345E-03  7488   0.626E-02 0.698E-05
CGA:   8    -0.343929016970E+03   -0.20447E-03   -0.20470E-03  7488   0.683E-03 0.247E-05
CGA:   9    -0.343929062555E+03   -0.45584E-04   -0.45590E-04  7488   0.625E-03-0.348E-06
CGA:  10    -0.343929098504E+03   -0.35949E-04   -0.35950E-04  7488   0.222E-03-0.146E-05
CGA:  11    -0.343929115218E+03   -0.16714E-04   -0.16739E-04  7488   0.211E-03-0.135E-05
CGA:  12    -0.343929122721E+03   -0.75033E-05   -0.74947E-05  7488   0.787E-04-0.349E-06
  59 F= -.34392912E+03 E0= -.34391264E+03  d E =-.111493E-02  mag=    20.0000
